[Molden Format]
[GTO]

    1 0
 s   9 1.00
   11720.0000000    0.0007100000
    1759.0000000    0.0054700000
     400.8000000    0.0278370000
     113.7000000    0.1048000000
      37.0300000    0.2830620000
      13.2700000    0.4487190000
       5.0250000    0.2709520000
       1.0130000    0.0154580000
       0.3023000   -0.0025850000
 s   9 1.00
   11720.0000000   -0.0001600000
    1759.0000000   -0.0012630000
     400.8000000   -0.0062670000
     113.7000000   -0.0257160000
      37.0300000   -0.0709240000
      13.2700000   -0.1654110000
       5.0250000   -0.1169550000
       1.0130000    0.5573680000
       0.3023000    0.5727590000
 s   9 1.00
   11720.0000000    0.0000000000
    1759.0000000    0.0000000000
     400.8000000    0.0000000000
     113.7000000    0.0000000000
      37.0300000    0.0000000000
      13.2700000    0.0000000000
       5.0250000    0.0000000000
       1.0130000    0.0000000000
       0.3023000    1.0000000000
 p   4 1.00
      17.7000000    0.0430180000
       3.8540000    0.2289130000
       1.0460000    0.5087280000
       0.2753000    0.4605310000
 p   4 1.00
      17.7000000    0.0000000000
       3.8540000    0.0000000000
       1.0460000    0.0000000000
       0.2753000    1.0000000000
 d   1 1.00
       1.1850000    1.0000000000

    2 0
 s   4 1.00
      13.0100000    0.0196850000
       1.9620000    0.1379770000
       0.4446000    0.4781480000
       0.1220000    0.5012400000
 s   4 1.00
      13.0100000    0.0000000000
       1.9620000    0.0000000000
       0.4446000    0.0000000000
       0.1220000    1.0000000000
 p   1 1.00
       0.7270000    1.0000000000

    3 0
 s   4 1.00
      13.0100000    0.0196850000
       1.9620000    0.1379770000
       0.4446000    0.4781480000
       0.1220000    0.5012400000
 s   4 1.00
      13.0100000    0.0000000000
       1.9620000    0.0000000000
       0.4446000    0.0000000000
       0.1220000    1.0000000000
 p   1 1.00
       0.7270000    1.0000000000
[SCFCONV]
scf-first  1  THROUGH   9
      -75.8496928915
      -76.0207801237
      -76.0262718432
      -76.0267733822
      -76.0267965043
      -76.0268009215
      -76.0268012596
      -76.0268012648
      -76.0268012649

[5D]

[MO]
Sym= A  
Ene=  -20.5504
Spin= Alpha
Occup= 2.0000
    1       -1.000401
    2       -0.002312
    3        0.001403
    4       -0.001273
    5        0.002229
    6       -0.000118
    7        0.000826
    8       -0.001446
    9        0.000077
   10       -0.000042
   11        0.000111
   12        0.118575
   13        0.000014
   14        0.283926
   15        0.000412
   16       -0.000628
   17        0.000044
   18        0.000555
   19       -0.000501
   20        0.000412
   21       -0.000628
   22       -0.000522
   23        0.000282
   24        0.000456
Sym= A  
Ene=   -1.3367
Spin= Alpha
Occup= 2.0000
    1        0.008217
    2       -0.870346
    3        0.122904
    4       -0.056945
    5        0.099668
    6       -0.005288
    7        0.032725
    8       -0.057277
    9        0.003039
   10       -0.000426
   11        0.002375
   12        0.118575
   13        0.000743
   14        0.283926
   15       -0.329565
   16        0.155112
   17       -0.008308
   18       -0.026664
   19        0.032155
   20       -0.329554
   21        0.155107
   22        0.028615
   23       -0.008878
   24       -0.030270
Sym= A  
Ene=   -0.6993
Spin= Alpha
Occup= 2.0000
    1        0.000000
    2       -0.000007
    3       -0.000006
    4       -0.353003
    5       -0.170053
    6        0.596823
    7        0.052880
    8        0.025474
    9       -0.089405
   10        0.001786
   11        0.010500
   12        0.118575
   13       -0.012111
   14        0.283926
   15        0.558194
   16       -0.190037
   17       -0.004663
   18        0.033890
   19       -0.020992
   20       -0.558185
   21        0.190031
   22        0.027718
   23       -0.022784
   24       -0.017986
Sym= A  
Ene=   -0.5666
Spin= Alpha
Occup= 2.0000
    1        0.002163
    2       -0.295621
    3       -0.180566
    4        0.393885
    5       -0.689367
    6        0.036554
    7       -0.000366
    8        0.000641
    9       -0.000034
   10       -0.007291
   11       -0.002988
   12        0.118575
   13       -0.008146
   14        0.283926
   15        0.351229
   16       -0.135770
   17        0.019444
   18        0.001019
   19       -0.026204
   20        0.351239
   21       -0.135770
   22       -0.011965
   23       -0.014110
   24        0.026898
Sym= A  
Ene=   -0.4932
Spin= Alpha
Occup= 2.0000
    1       -0.000000
    2        0.000000
    3        0.000000
    4       -0.656710
    5       -0.401894
    6       -0.502936
    7       -0.051504
    8       -0.031519
    9       -0.039444
   10       -0.000793
   11       -0.005533
   12        0.118575
   13       -0.013346
   14        0.283926
   15       -0.000000
   16        0.000000
   17       -0.022198
   18       -0.013585
   19       -0.017000
   20       -0.000000
   21        0.000000
   22       -0.022198
   23       -0.013585
   24       -0.017000
Sym= A  
Ene=    0.1856
Spin= Alpha
Occup= 0.0000
    1       -0.052031
    2        0.142670
    3        0.921019
    4        0.137526
    5       -0.240686
    6        0.012756
    7        0.103639
    8       -0.181380
    9        0.009613
   10       -0.000281
   11       -0.007737
   12        0.118575
   13       -0.003960
   14        0.283926
   15       -0.100237
   16       -0.779100
   17       -0.000593
   18       -0.018358
   19        0.015444
   20       -0.100243
   21       -0.779129
   22        0.016787
   23       -0.009985
   24       -0.013941
Sym= A  
Ene=    0.2563
Spin= Alpha
Occup= 0.0000
    1        0.000001
    2       -0.000002
    3       -0.000024
    4        0.203970
    5        0.098255
    6       -0.344850
    7        0.237830
    8        0.114566
    9       -0.402097
   10       -0.001417
   11       -0.008329
   12        0.118575
   13        0.009608
   14        0.283926
   15        0.044103
   16        1.422670
   17        0.001794
   18        0.019868
   19       -0.018219
   20       -0.044105
   21       -1.422636
   22        0.018822
   23       -0.009936
   24       -0.016637
Sym= A  
Ene=    0.7893
Spin= Alpha
Occup= 0.0000
    1        0.000006
    2        0.000043
    3       -0.000057
    4        0.192991
    5        0.092922
    6       -0.326252
    7        0.139352
    8        0.067150
    9       -0.235619
   10        0.007440
   11        0.043757
   12        0.118575
   13       -0.050464
   14        0.283926
   15        1.606979
   16       -1.491296
   17        0.039195
   18       -0.150287
   19        0.068915
   20       -1.607202
   21        1.491507
   22       -0.112419
   23        0.115023
   24        0.054877
Sym= A  
Ene=    0.8545
Spin= Alpha
Occup= 0.0000
    1        0.065057
    2        0.502740
    3       -0.607713
    4        0.237787
    5       -0.416202
    6        0.022095
    7       -0.114504
    8        0.200363
    9       -0.010595
   10       -0.036587
   11        0.086032
   12        0.118575
   13        0.007453
   14        0.283926
   15       -1.339797
   16        1.219202
   17        0.117102
   18        0.121990
   19       -0.250388
   20       -1.339536
   21        1.218980
   22       -0.175848
   23       -0.019156
   24        0.244922
Sym= A  
Ene=    1.1635
Spin= Alpha
Occup= 0.0000
    1        0.003183
    2        0.225669
    3        0.620403
    4       -0.544668
    5        0.953299
    6       -0.050575
    7        0.884935
    8       -1.548865
    9        0.082186
   10       -0.008644
   11        0.005882
   12        0.118575
   13       -0.005151
   14        0.283926
   15       -0.931481
   16        0.353820
   17        0.082446
   18       -0.237502
   19        0.082133
   20       -0.931442
   21        0.353847
   22        0.165958
   23       -0.197270
   24       -0.059063
Sym= A  
Ene=    1.2004
Spin= Alpha
Occup= 0.0000
    1       -0.000000
    2        0.000000
    3        0.000000
    4       -1.006991
    5       -0.616259
    6       -0.771195
    7        1.195949
    8        0.731898
    9        0.915908
   10       -0.000155
   11       -0.001074
   12        0.118575
   13       -0.002590
   14        0.283926
   15       -0.000000
   16       -0.000000
   17        0.005668
   18        0.003469
   19        0.004341
   20        0.000000
   21        0.000000
   22        0.005680
   23        0.003476
   24        0.004350
Sym= A  
Ene=    1.2533
Spin= Alpha
Occup= 0.0000
    1       -0.000000
    2       -0.000010
    3        0.000008
    4        0.528827
    5        0.254704
    6       -0.894051
    7       -1.115972
    8       -0.537518
    9        1.886713
   10        0.002976
   11        0.017489
   12        0.118575
   13       -0.020175
   14        0.283926
   15       -0.645815
   16       -0.502082
   17       -0.057019
   18       -0.234147
   19        0.261559
   20        0.645855
   21        0.502056
   22       -0.242231
   23        0.090005
   24        0.244371
Sym= A  
Ene=    1.4445
Spin= Alpha
Occup= 0.0000
    1        0.201765
    2        1.039634
    3       -1.101682
    4       -0.095296
    5        0.166793
    6       -0.008850
    7        0.410420
    8       -0.718323
    9        0.038102
   10        0.059797
   11       -0.008328
   12        0.118575
   13        0.051105
   14        0.283926
   15       -0.567160
   16        0.493900
   17       -0.433211
   18        0.394929
   19        0.250081
   20       -0.567147
   21        0.493893
   22       -0.107682
   23        0.551737
   24       -0.300285
Sym= A  
Ene=    1.4763
Spin= Alpha
Occup= 0.0000
    1       -0.000000
    2       -0.000000
    3        0.000000
    4        0.000016
    5        0.000010
    6        0.000012
    7       -0.000017
    8       -0.000010
    9       -0.000013
   10       -0.103921
   11       -0.042855
   12        0.118575
   13        0.032680
   14        0.283926
   15       -0.000000
   16        0.000000
   17       -0.489606
   18       -0.299630
   19       -0.374960
   20       -0.000000
   21        0.000000
   22        0.489613
   23        0.299634
   24        0.374966
Sym= A  
Ene=    1.6746
Spin= Alpha
Occup= 0.0000
    1       -0.000000
    2       -0.000000
    3        0.000000
    4       -0.021428
    5       -0.013114
    6       -0.016410
    7       -0.442525
    8       -0.270817
    9       -0.338904
   10        0.007005
   11        0.048850
   12        0.118575
   13        0.117825
   14        0.283926
   15       -0.000000
   16       -0.000000
   17        0.547811
   18        0.335250
   19        0.419536
   20       -0.000000
   21        0.000000
   22        0.547802
   23        0.335244
   24        0.419529
Sym= A  
Ene=    1.8673
Spin= Alpha
Occup= 0.0000
    1       -0.723914
    2       -3.130177
    3        4.826424
    4        0.079732
    5       -0.139561
    6        0.007412
    7        0.442920
    8       -0.775205
    9        0.041119
   10        0.019263
   11        0.082420
   12        0.118575
   13        0.057169
   14        0.283926
   15       -1.410801
   16        0.319016
   17       -0.195961
   18       -0.068694
   19        0.310771
   20       -1.410756
   21        0.319010
   22        0.172925
   23        0.109022
   24       -0.312916
Sym= A  
Ene=    1.9351
Spin= Alpha
Occup= 0.0000
    1       -0.000011
    2       -0.000047
    3        0.000060
    4       -0.007231
    5       -0.003491
    6        0.012231
    7        0.449094
    8        0.216321
    9       -0.759267
   10        0.001960
   11        0.011517
   12        0.118575
   13       -0.013283
   14        0.283926
   15        0.659794
   16       -0.239193
   17       -0.576963
   18        0.488778
   19        0.362791
   20       -0.659819
   21        0.239198
   22        0.110083
   23       -0.713671
   24        0.426551
Sym= A  
Ene=    2.4531
Spin= Alpha
Occup= 0.0000
    1        0.000095
    2        0.000508
    3        0.000029
    4        0.605016
    5        0.291028
    6       -1.022561
    7       -0.203158
    8       -0.097757
    9        0.343391
   10        0.009221
   11        0.054378
   12        0.118575
   13       -0.062633
   14        0.283926
   15        0.503106
   16        0.077726
   17        0.083067
   18        0.653867
   19       -0.630967
   20       -0.503726
   21       -0.077544
   22        0.633629
   23       -0.309086
   24       -0.580374
Sym= A  
Ene=    2.4907
Spin= Alpha
Occup= 0.0000
    1       -0.278726
    2       -1.434892
    3        0.028906
    4       -0.483285
    5        0.846376
    6       -0.045286
    7        0.133609
    8       -0.234027
    9        0.012550
   10        0.048938
   11       -0.172839
   12        0.118575
   13       -0.037631
   14        0.283926
   15        0.815236
   16       -0.249792
   17        0.102058
   18        0.643330
   19       -0.647345
   20        0.814814
   21       -0.249831
   22       -0.633997
   23        0.288294
   24        0.597469
Sym= A  
Ene=    3.2858
Spin= Alpha
Occup= 0.0000
    1       -0.000000
    2       -0.000000
    3        0.000000
    4       -0.011834
    5       -0.007242
    6       -0.009063
    7        0.228144
    8        0.139620
    9        0.174722
   10        0.045344
   11        0.316859
   12        0.118575
   13        0.764389
   14        0.283926
   15       -0.000000
   16        0.000000
   17       -0.284602
   18       -0.174171
   19       -0.217960
   20       -0.000000
   21        0.000000
   22       -0.284658
   23       -0.174205
   24       -0.218003
Sym= A  
Ene=    3.3390
Spin= Alpha
Occup= 0.0000
    1        0.000000
    2        0.000000
    3       -0.000000
    4        0.000001
    5        0.000001
    6        0.000001
    7        0.000028
    8        0.000017
    9        0.000022
   10        0.844347
   11        0.348233
   12        0.118575
   13       -0.265416
   14        0.283926
   15       -0.000000
   16        0.000000
   17       -0.265416
   18       -0.162430
   19       -0.203267
   20       -0.000000
   21        0.000000
   22        0.265343
   23        0.162385
   24        0.203211
Sym= A  
Ene=    3.5107
Spin= Alpha
Occup= 0.0000
    1        0.084234
    2        0.303104
    3       -0.733955
    4       -0.014246
    5        0.024930
    6       -0.001320
    7       -0.260542
    8        0.455988
    9       -0.024175
   10        0.599571
   11       -0.183580
   12        0.118575
   13        0.464539
   14        0.283926
   15        0.523424
   16       -0.224318
   17        0.330738
   18       -0.189192
   19       -0.280679
   20        0.523436
   21       -0.224320
   22       -0.018445
   23       -0.357377
   24        0.309663
Sym= A  
Ene=    3.8659
Spin= Alpha
Occup= 0.0000
    1        0.142144
    2        0.343359
    3       -2.465867
    4       -0.292790
    5        0.512441
    6       -0.027178
    7       -0.321959
    8        0.563465
    9       -0.029865
   10       -0.334848
   11        0.927175
   12        0.118575
   13        0.134995
   14        0.283926
   15        2.108933
   16       -0.865327
   17        0.062178
   18        0.576068
   19       -0.541522
   20        2.108961
   21       -0.865329
   22       -0.551574
   23        0.280440
   24        0.496122
Sym= A  
Ene=    4.1477
Spin= Alpha
Occup= 0.0000
    1        0.000004
    2        0.000023
    3        0.000074
    4       -0.338289
    5       -0.162990
    6        0.571967
    7       -0.410273
    8       -0.197654
    9        0.693660
   10        0.088296
   11        0.519006
   12        0.118575
   13       -0.598688
   14        0.283926
   15       -1.850793
   16        0.639037
   17       -0.055045
   18       -0.572763
   19        0.529568
   20        1.850600
   21       -0.638952
   22       -0.544500
   23        0.283926
   24        0.484098
[Atoms] AU
O          1     8        -0.2743882333         0.4801794084        -0.3577251555
H1         2     1        -0.4327472826        -0.8208970287         0.8887381966
H2         3     1         0.9815237493        -0.1396507606        -1.5023322694
