[Molden Format]
[GTO]
    1 0
 s  10 1.00
   15330.0000000    0.0005080000
    2299.0000000    0.0039290000
     522.4000000    0.0202430000
     147.3000000    0.0791810000
      47.5500000    0.2306870000
      16.7600000    0.4331180000
       6.2070000    0.3502600000
       1.7520000    0.0427280000
       0.6882000   -0.0081540000
       0.2384000    0.0023810000
 s  10 1.00
   15330.0000000   -0.0001150000
    2299.0000000   -0.0008950000
     522.4000000   -0.0046360000
     147.3000000   -0.0187240000
      47.5500000   -0.0584630000
      16.7600000   -0.1364630000
       6.2070000   -0.1757400000
       1.7520000    0.1609340000
       0.6882000    0.6034180000
       0.2384000    0.3787650000
 s  10 1.00
   15330.0000000    0.0000000000
    2299.0000000    0.0000000000
     522.4000000    0.0000000000
     147.3000000    0.0000000000
      47.5500000    0.0000000000
      16.7600000    0.0000000000
       6.2070000    0.0000000000
       1.7520000    1.0000000000
       0.6882000    0.0000000000
       0.2384000    0.0000000000
 s  10 1.00
   15330.0000000    0.0000000000
    2299.0000000    0.0000000000
     522.4000000    0.0000000000
     147.3000000    0.0000000000
      47.5500000    0.0000000000
      16.7600000    0.0000000000
       6.2070000    0.0000000000
       1.7520000    0.0000000000
       0.6882000    0.0000000000
       0.2384000    1.0000000000
 p   5 1.00
      34.4600000    0.0159280000
       7.7490000    0.0997400000
       2.2800000    0.3104920000
       0.7156000    0.4910260000
       0.2140000    0.3363370000
 p   5 1.00
      34.4600000    0.0000000000
       7.7490000    0.0000000000
       2.2800000    0.0000000000
       0.7156000    1.0000000000
       0.2140000    0.0000000000
 p   5 1.00
      34.4600000    0.0000000000
       7.7490000    0.0000000000
       2.2800000    0.0000000000
       0.7156000    0.0000000000
       0.2140000    1.0000000000
 d   2 1.00
       2.3140000    1.0000000000
       0.6450000    0.0000000000
 d   2 1.00
       2.3140000    0.0000000000
       0.6450000    1.0000000000
 f   1 1.00
       1.4280000    1.0000000000

    2 0
 s   5 1.00
      33.8700000    0.0060680000
       5.0950000    0.0453080000
       1.1590000    0.2028220000
       0.3258000    0.5039030000
       0.1027000    0.3834210000
 s   5 1.00
      33.8700000    0.0000000000
       5.0950000    0.0000000000
       1.1590000    0.0000000000
       0.3258000    1.0000000000
       0.1027000    0.0000000000
 s   5 1.00
      33.8700000    0.0000000000
       5.0950000    0.0000000000
       1.1590000    0.0000000000
       0.3258000    0.0000000000
       0.1027000    1.0000000000
 p   2 1.00
       1.4070000    1.0000000000
       0.3880000    0.0000000000
 p   2 1.00
       1.4070000    0.0000000000
       0.3880000    1.0000000000
 d   1 1.00
       1.0570000    1.0000000000

    3 0
 s   5 1.00
      33.8700000    0.0060680000
       5.0950000    0.0453080000
       1.1590000    0.2028220000
       0.3258000    0.5039030000
       0.1027000    0.3834210000
 s   5 1.00
      33.8700000    0.0000000000
       5.0950000    0.0000000000
       1.1590000    0.0000000000
       0.3258000    1.0000000000
       0.1027000    0.0000000000
 s   5 1.00
      33.8700000    0.0000000000
       5.0950000    0.0000000000
       1.1590000    0.0000000000
       0.3258000    0.0000000000
       0.1027000    1.0000000000
 p   2 1.00
       1.4070000    1.0000000000
       0.3880000    0.0000000000
 p   2 1.00
       1.4070000    0.0000000000
       0.3880000    1.0000000000
 d   1 1.00
       1.0570000    1.0000000000

[SCFCONV]
scf-first  1  THROUGH  10
      -75.8775182774
      -76.0495077548
      -76.0557269736
      -76.0564179922
      -76.0565142152
      -76.0565235653
      -76.0565240223
      -76.0565240452
      -76.0565240457
      -76.0565240457
[TITLE]
*** Dalton2013 interface to Molden, wave function type : HF            24Feb14
[Atoms] AU
O          1     8         0.0000000000         0.0000000000         0.698013702
H1         2     1        -1.4814997377         0.0000000000        -0.349006851
H2         3     1         1.4814997377         0.0000000000        -0.349006851
[5D7F]
[9G]
[MO]
Sym= A
Ene=  -20.5526
Spin= Alpha
Occup= 0.0000
    1       -0.999271
    2        0.001114
    3       -0.001012
    4        0.000919
    7        0.004785
   10       -0.003818
   13       -0.001790
   14       -0.000007
   17       -0.000058
   19        0.000089
   22        0.000564
   24        0.000027
   27       -0.000106
   31       -0.002072
   32       -0.000073
   33        0.001046
   34       -0.000237
   36       -0.000131
   37       -0.000511
   39       -0.000318
   40        0.000035
   41        0.000108
   43        0.000016
   45       -0.002072
   46       -0.000073
   47        0.001046
   48        0.000237
   50       -0.000131
   51        0.000511
   53       -0.000318
   54        0.000035
   55       -0.000108
   57        0.000016
Sym= A
Ene=   -1.3405
Spin= Alpha
Occup= 0.0000
    1        0.008675
    2       -0.867348
    3        0.006766
    4        0.041257
    7        0.107692
   10        0.007570
   13       -0.024194
   14       -0.000537
   17       -0.004033
   19       -0.001695
   22       -0.008325
   24       -0.001083
   27        0.002881
   31       -0.371461
   32        0.115486
   33        0.136034
   34       -0.010670
   36       -0.006905
   37       -0.009808
   39       -0.004229
   40        0.000196
   41       -0.001881
   43       -0.001309
   45       -0.371461
   46        0.115486
   47        0.136034
   48        0.010670
   50       -0.006905
   51        0.009808
   53       -0.004229
   54        0.000196
   55        0.001881
   57       -0.001309
Sym= A
Ene=   -0.7174
Spin= Alpha
Occup= 0.0000
    5       -0.726220
    8        0.018820
   11        0.089949
   15        0.012726
   20        0.021945
   25        0.000107
   29       -0.003464
   31        0.600753
   32       -0.083457
   33       -0.171403
   34        0.010364
   36        0.012151
   37        0.020695
   39        0.022594
   40        0.001398
   41        0.005721
   43        0.003495
   45       -0.600753
   46        0.083457
   47        0.171403
   48        0.010364
   50       -0.012151
   51        0.020695
   53       -0.022594
   54       -0.001398
   55        0.005721
   57       -0.003495
Sym= A
Ene=   -0.5673
Spin= Alpha
Occup= 0.0000
    1        0.001985
    2        0.292233
    3        0.004068
    4        0.153083
    7        0.816995
   10       -0.013403
   13        0.014118
   14       -0.005015
   17       -0.003368
   19       -0.017636
   22       -0.006155
   24        0.000248
   27        0.003388
   31       -0.349836
   32        0.043618
   33        0.107571
   34       -0.009272
   36        0.001524
   37       -0.019957
   39        0.013920
   40        0.002401
   41       -0.000253
   43       -0.003135
   45       -0.349836
   46        0.043618
   47        0.107571
   48        0.009272
   50        0.001524
   51        0.019957
   53        0.013920
   54        0.002401
   55        0.000253
   57       -0.003135
Sym= A
Ene=   -0.5025
Spin= Alpha
Occup= 0.0000
    6       -0.922092
    9        0.008853
   12       -0.067143
   16        0.005006
   21        0.017646
   26       -0.001284
   30       -0.004218
   35       -0.010093
   38       -0.030668
   42       -0.002746
   44       -0.004190
   49       -0.010093
   52       -0.030668
   56       -0.002746
   58        0.004190
Sym= A
Ene=    0.1427
Spin= Alpha
Occup= 0.0000
    1       -0.030449
    2        0.182946
    3        0.010609
    4        1.516547
    7       -0.198528
   10       -0.092189
   13       -0.388430
   14        0.000894
   17       -0.002790
   19        0.005084
   22        0.056746
   24        0.004676
   27       -0.009092
   31       -0.122445
   32       -0.240546
   33       -0.878402
   34        0.005097
   36        0.000137
   37       -0.156687
   39       -0.104386
   40       -0.002492
   41       -0.017575
   43       -0.010060
   45       -0.122445
   46       -0.240546
   47       -0.878402
   48       -0.005097
   50        0.000137
   51        0.156687
   53       -0.104386
   54       -0.002492
   55        0.017575
   57       -0.010060
Sym= A
Ene=    0.2028
Spin= Alpha
Occup= 0.0000
    5        0.347777
    8        0.032518
   11        0.748036
   15        0.002875
   20       -0.059557
   25        0.000289
   29        0.003061
   31        0.065186
   32        0.111967
   33        1.705367
   34       -0.011922
   36       -0.011532
   37        0.135261
   39        0.108835
   40       -0.001449
   41        0.009351
   43        0.008937
   45       -0.065186
   46       -0.111967
   47       -1.705367
   48       -0.011922
   50        0.011532
   51        0.135261
   53       -0.108835
   54        0.001449
   55        0.009351
   57       -0.008937
Sym= A
Ene=    0.5522
Spin= Alpha
Occup= 0.0000
    5       -0.275455
    8       -0.151901
   11       -1.215652
   15       -0.027818
   20        0.143916
   25       -0.013129
   29       -0.016835
   31       -0.391999
   32       -1.386107
   33        0.708462
   34       -0.047967
   36       -0.028261
   37       -0.063428
   39        0.042967
   40        0.009272
   41       -0.028321
   43       -0.017483
   45        0.391999
   46        1.386107
   47       -0.708462
   48       -0.047967
   50        0.028261
   51       -0.063428
   53       -0.042967
   54       -0.009272
   55       -0.028321
   57        0.017483
Sym= A
Ene=    0.5820
Spin= Alpha
Occup= 0.0000
    1       -0.022231
    2       -0.325823
    3        0.026904
    4       -0.543872
    7        0.225348
   10        0.027529
   13        0.481458
   14       -0.009109
   17        0.020852
   19        0.025857
   22       -0.044599
   24       -0.011196
   27        0.016743
   31        0.374479
   32        1.161054
   33       -0.718100
   34        0.032315
   36        0.017319
   37       -0.214630
   39        0.090795
   40        0.014812
   41        0.013517
   43        0.006458
   45        0.374479
   46        1.161054
   47       -0.718100
   48       -0.032315
   50        0.017319
   51        0.214630
   53        0.090795
   54        0.014812
   55       -0.013517
   57        0.006458
Sym= A
Ene=    0.6733
Spin= Alpha
Occup= 0.0000
    1        0.037036
    2        0.120020
    3       -0.065865
    4        4.598149
    7        0.642147
   10       -0.185021
   13       -2.801993
   14       -0.013648
   17       -0.023406
   19        0.054774
   22        0.302548
   24        0.013623
   27       -0.033208
   31        0.153119
   32       -2.358177
   33       -0.535336
   34       -0.022494
   36       -0.017025
   37       -1.009077
   39       -0.569233
   40        0.007104
   41       -0.061544
   43       -0.059216
   45        0.153119
   46       -2.358177
   47       -0.535336
   48        0.022494
   50       -0.017025
   51        1.009077
   53       -0.569233
   54        0.007104
   55        0.061544
   57       -0.059216
Sym= A
Ene=    0.7883
Spin= Alpha
Occup= 0.0000
    6        0.668128
    9        0.445690
   12       -1.401693
   16       -0.008484
   21        0.033877
   26       -0.002166
   30       -0.006932
   35        0.011886
   38       -0.007083
   42        0.012893
   44        0.019941
   49        0.011886
   52       -0.007083
   56        0.012893
   58       -0.019941
Sym= A
Ene=    0.8020
Spin= Alpha
Occup= 0.0000
    5       -0.715901
    8        0.377804
   11        3.265974
   15        0.025712
   20       -0.437953
   25        0.020958
   29        0.021951
   31       -0.125385
   32        1.701786
   33        1.503456
   34        0.042194
   36        0.026969
   37        0.942790
   39        0.702025
   40       -0.007713
   41        0.087328
   43        0.061787
   45        0.125385
   46       -1.701786
   47       -1.503456
   48        0.042194
   50       -0.026969
   51        0.942790
   53       -0.702025
   54        0.007713
   55        0.087328
   57       -0.061787
Sym= A
Ene=    0.8278
Spin= Alpha
Occup= 0.0000
    1       -0.032074
    2       -0.287479
    3        0.014923
    4       -0.439403
    7        0.129224
   10        0.057563
   13        1.329625
   14        0.035463
   17       -0.009241
   19       -0.134794
   22        0.086230
   24        0.014873
   27        0.001720
   31       -0.047893
   32        0.976318
   33       -0.263857
   34       -0.030136
   36        0.038704
   37        0.512218
   39       -0.748816
   40       -0.042578
   41       -0.035351
   43        0.033339
   45       -0.047893
   46        0.976318
   47       -0.263857
   48        0.030136
   50        0.038704
   51       -0.512218
   53       -0.748816
   54       -0.042578
   55        0.035351
   57        0.033339
Sym= A
Ene=    0.8502
Spin= Alpha
Occup= 0.0000
   18       -0.028542
   23        0.040922
   28       -0.016567
   35       -0.058267
   38        0.839407
   42        0.025469
   44        0.015247
   49        0.058267
   52       -0.839407
   56       -0.025469
   58        0.015247
Sym= A
Ene=    0.9761
Spin= Alpha
Occup= 0.0000
    6        0.066585
    9        0.025875
   12        1.123448
   16        0.022214
   21        0.012809
   26        0.003616
   30        0.018280
   35        0.074931
   38       -1.019954
   42       -0.000279
   44       -0.037370
   49        0.074931
   52       -1.019954
   56       -0.000279
   58        0.037370
Sym= A
Ene=    1.1281
Spin= Alpha
Occup= 0.0000
    1       -0.256257
    2       -1.394528
    3       -0.026262
    4        7.693293
    7       -0.150655
   10       -0.967362
   13       -1.645691
   14        0.000064
   17       -0.012317
   19       -0.077474
   22        0.327204
   24        0.044495
   27       -0.078991
   31        0.122853
   32       -3.075558
   33       -0.664380
   34       -0.077877
   36       -0.082051
   37       -1.279946
   39       -0.648773
   40       -0.026627
   41       -0.149187
   43       -0.111269
   45        0.122853
   46       -3.075558
   47       -0.664380
   48        0.077877
   50       -0.082051
   51        1.279946
   53       -0.648773
   54       -0.026627
   55        0.149187
   57       -0.111269
Sym= A
Ene=    1.1811
Spin= Alpha
Occup= 0.0000
    5        0.038266
    8        0.091734
   11        1.788006
   15        0.001913
   20       -0.064966
   25       -0.004904
   29        0.011677
   31       -0.038251
   32        1.037521
   33        0.115500
   34        0.064368
   36       -0.058688
   37       -0.571987
   39        1.026662
   40        0.008291
   41        0.009049
   43        0.005696
   45        0.038251
   46       -1.037521
   47       -0.115500
   48        0.064368
   50        0.058688
   51       -0.571987
   53       -1.026662
   54       -0.008291
   55        0.009049
   57       -0.005696
Sym= A
Ene=    1.5377
Spin= Alpha
Occup= 0.0000
    5       -0.525706
    8       -1.000088
   11       -0.832924
   15        0.000858
   20       -0.074706
   25        0.008078
   29        0.002569
   31       -0.576426
   32       -1.159300
   33       -0.533132
   34        0.070200
   36        0.059866
   37       -1.432585
   39       -1.083710
   40        0.011397
   41       -0.084767
   43       -0.051454
   45        0.576426
   46        1.159300
   47        0.533132
   48        0.070200
   50       -0.059866
   51       -1.432585
   53        1.083710
   54       -0.011397
   55       -0.084767
   57        0.051454
Sym= A
Ene=    1.5516
Spin= Alpha
Occup= 0.0000
    1        0.327798
    2        1.576860
    3       -0.013303
    4        1.259872
    7       -0.445927
   10       -0.359295
   13       -0.113716
   14        0.002929
   17       -0.010736
   19        0.018071
   22       -0.271158
   24       -0.030336
   27        0.055846
   31       -0.481017
   32       -0.639473
   33       -0.089871
   34        0.139770
   36        0.094544
   37       -1.083898
   39       -0.744079
   40       -0.002688
   41        0.042673
   43        0.006951
   45       -0.481017
   46       -0.639473
   47       -0.089871
   48       -0.139770
   50        0.094544
   51        1.083898
   53       -0.744079
   54       -0.002688
   55       -0.042673
   57        0.006951
Sym= A
Ene=    2.0114
Spin= Alpha
Occup= 0.0000
    6       -0.014381
    9        0.054289
   12        0.695906
   16        0.015256
   21       -1.145754
   26        0.012760
   30        0.002914
   35        0.035689
   38       -0.656062
   42       -0.075307
   44        0.023179
   49        0.035689
   52       -0.656062
   56       -0.075307
   58       -0.023179
Sym= A
Ene=    2.0613
Spin= Alpha
Occup= 0.0000
    5        0.048387
    8        1.839288
   11        2.918450
   15       -0.012223
   20       -1.708731
   25        0.096370
   29        0.091796
   31       -1.705759
   32        5.338166
   33        0.923845
   34        0.163767
   36        0.154172
   37        1.751787
   39        1.188672
   40       -0.029976
   41        0.247710
   43        0.164119
   45        1.705759
   46       -5.338166
   47       -0.923845
   48        0.163767
   50       -0.154172
   51        1.751787
   53       -1.188672
   54        0.029976
   55        0.247710
   57       -0.164119
Sym= A
Ene=    2.0761
Spin= Alpha
Occup= 0.0000
   18       -0.014688
   23        1.252310
   28       -0.021529
   35       -0.060130
   38        0.617789
   42       -0.015715
   44        0.061109
   49        0.060130
   52       -0.617789
   56        0.015715
   58        0.061109
Sym= A
Ene=    2.1506
Spin= Alpha
Occup= 0.0000
    1       -0.215498
    2       -0.843876
    3        0.076322
    4       -1.499755
    7        0.059491
   10        0.316316
   13       -0.003458
   14       -0.009416
   17       -0.000493
   19        1.094167
   22       -0.724175
   24       -0.047725
   27        0.062323
   31       -1.319043
   32        2.166880
   33        0.447510
   34        0.104402
   36       -0.036349
   37        0.180489
   39        0.927304
   40        0.054516
   41        0.044797
   43        0.027584
   45       -1.319043
   46        2.166880
   47        0.447510
   48       -0.104402
   50       -0.036349
   51       -0.180489
   53        0.927304
   54        0.054516
   55       -0.044797
   57        0.027584
Sym= A
Ene=    2.2399
Spin= Alpha
Occup= 0.0000
    1        0.169963
    2        0.658021
    3       -0.126861
    4        6.990958
    7       -0.355947
   10       -0.769127
   13       -2.571511
   14       -0.000272
   17       -0.004752
   19        0.670953
   22        1.317888
   24        0.035805
   27       -0.085927
   31        0.960408
   32       -4.935926
   33       -0.545875
   34       -0.065504
   36       -0.047925
   37       -1.707095
   39       -0.777146
   40        0.014765
   41       -0.126478
   43       -0.062627
   45        0.960408
   46       -4.935926
   47       -0.545875
   48        0.065504
   50       -0.047925
   51        1.707095
   53       -0.777146
   54        0.014765
   55        0.126478
   57       -0.062627
Sym= A
Ene=    2.6313
Spin= Alpha
Occup= 0.0000
    1       -0.202351
    2       -0.634875
    3        0.104039
    4       -0.287997
    7       -0.518619
   10        0.563235
   13        0.629404
   14       -0.000482
   17       -0.020526
   19       -0.400928
   22        0.461004
   24       -0.061083
   27        0.115878
   31       -3.874808
   32        3.350631
   33        1.147945
   34        0.078143
   36        0.119222
   37        0.287275
   39       -0.144922
   40        0.055375
   41       -0.074096
   43        0.138690
   45       -3.874808
   46        3.350631
   47        1.147945
   48       -0.078143
   50        0.119222
   51       -0.287275
   53       -0.144922
   54        0.055375
   55        0.074096
   57        0.138690
Sym= A
Ene=    2.9446
Spin= Alpha
Occup= 0.0000
    5       -0.820934
    8        0.882688
   11       -0.111652
   15       -0.001053
   20        0.629930
   25        0.072889
   29        0.107398
   31       -3.626160
   32        2.606206
   33        0.846081
   34        0.174232
   36        0.073920
   37       -0.040817
   39        0.083933
   40       -0.146286
   41        0.123567
   43       -0.115934
   45        3.626160
   46       -2.606206
   47       -0.846081
   48        0.174232
   50       -0.073920
   51       -0.040817
   53       -0.083933
   54        0.146286
   55        0.123567
   57        0.115934
Sym= A
Ene=    3.4006
Spin= Alpha
Occup= 0.0000
    6       -0.313153
    9        0.204920
   12        0.244793
   16       -0.025898
   21       -0.326706
   26       -0.093762
   30        0.078307
   35        0.228344
   38       -0.227297
   42        0.562268
   44       -0.307010
   49        0.228344
   52       -0.227297
   56        0.562268
   58        0.307010
Sym= A
Ene=    3.5124
Spin= Alpha
Occup= 0.0000
    1        0.008023
    2        0.004682
    3        0.015814
    4       -0.544033
    7       -0.154884
   10        0.023133
   13        0.193882
   14       -0.027835
   17        0.036999
   19        0.425840
   22        0.123979
   24        0.042628
   27        0.073547
   31       -1.161694
   32        1.142125
   33        0.381917
   34        0.147583
   36        0.043343
   37       -0.000420
   39        0.126458
   40       -0.149874
   41        0.305689
   43       -0.606481
   45       -1.161694
   46        1.142125
   47        0.381917
   48       -0.147583
   50        0.043343
   51        0.000420
   53        0.126458
   54       -0.149874
   55       -0.305689
   57       -0.606481
Sym= A
Ene=    3.5411
Spin= Alpha
Occup= 0.0000
   18       -0.047794
   23       -0.069642
   28        0.102348
   35        0.396968
   38       -0.240897
   42       -0.449644
   44        0.411942
   49       -0.396968
   52        0.240897
   56        0.449644
   58        0.411942
Sym= A
Ene=    3.6176
Spin= Alpha
Occup= 0.0000
    5       -0.053730
    8       -0.084337
   11        0.010489
   15        0.065635
   20        0.286497
   25       -0.035870
   29       -0.034663
   31       -1.350141
   32        0.804039
   33        0.303863
   34        0.317024
   36       -0.027947
   37       -0.355140
   39       -0.014775
   40        0.445530
   41       -0.436691
   43        0.189828
   45        1.350141
   46       -0.804039
   47       -0.303863
   48        0.317024
   50        0.027947
   51       -0.355140
   53        0.014775
   54       -0.445530
   55       -0.436691
   57       -0.189828
Sym= A
Ene=    3.8046
Spin= Alpha
Occup= 0.0000
    6       -2.015039
    9        1.688194
   12        0.487522
   16       -0.036933
   21        0.309438
   26        0.081608
   30        0.051155
   35        0.571717
   38       -0.284420
   42       -0.098360
   44        0.258517
   49        0.571717
   52       -0.284420
   56       -0.098360
   58       -0.258517
Sym= A
Ene=    3.8785
Spin= Alpha
Occup= 0.0000
    1       -0.066258
    2       -0.287437
    3       -0.023669
    4        0.377567
    7       -0.017653
   10       -0.207030
   13       -0.495723
   14       -0.008305
   17        0.007456
   19        0.331031
   22       -0.218769
   24       -0.150280
   27        0.011822
   31        0.284084
   32       -0.353015
   33       -0.074820
   34        0.362600
   36       -0.572846
   37       -0.324250
   39        0.584691
   40        0.521854
   41        0.182859
   43       -0.092449
   45        0.284084
   46       -0.353015
   47       -0.074820
   48       -0.362600
   50       -0.572846
   51        0.324250
   53        0.584691
   54        0.521854
   55       -0.182859
   57       -0.092449
Sym= A
Ene=    3.8850
Spin= Alpha
Occup= 0.0000
    5        0.208970
    8       -0.333168
   11       -1.082360
   15       -0.006252
   20        0.525979
   25        0.152614
   29       -0.068793
   31       -0.404218
   32       -0.634752
   33        0.013256
   34       -0.440336
   36        0.638070
   37        0.023443
   39       -0.694758
   40        0.256321
   41       -0.015976
   43       -0.082809
   45        0.404218
   46        0.634752
   47       -0.013256
   48       -0.440336
   50       -0.638070
   51        0.023443
   53        0.694758
   54       -0.256321
   55       -0.015976
   57        0.082809
Sym= A
Ene=    3.9433
Spin= Alpha
Occup= 0.0000
   18       -0.010469
   23        0.014416
   28        0.183183
   35        0.734956
   38       -0.538289
   42        0.100584
   44       -0.446326
   49       -0.734956
   52        0.538289
   56       -0.100584
   58       -0.446326
Sym= A
Ene=    4.0321
Spin= Alpha
Occup= 0.0000
    6       -1.387557
    9        0.871337
   12       -0.286422
   16       -0.000987
   21        0.387664
   26       -0.050864
   30       -0.145827
   35       -0.574110
   38        0.729094
   42        0.366918
   44        0.468736
   49       -0.574110
   52        0.729094
   56        0.366918
   58       -0.468736
Sym= A
Ene=    4.0918
Spin= Alpha
Occup= 0.0000
    5        1.614944
    8       -2.492389
   11       -1.251840
   15        0.162277
   20       -0.247779
   25       -0.021490
   29       -0.051145
   31        1.080437
   32       -2.178169
   33       -0.742439
   34        0.381340
   36        0.396203
   37       -1.143914
   39       -1.059380
   40       -0.363808
   41       -0.416303
   43       -0.315300
   45       -1.080437
   46        2.178169
   47        0.742439
   48        0.381340
   50       -0.396203
   51       -1.143914
   53        1.059380
   54        0.363808
   55       -0.416303
   57        0.315300
Sym= A
Ene=    4.1821
Spin= Alpha
Occup= 0.0000
    1        0.299407
    2        1.071482
    3        0.051177
    4        3.147646
    7        1.891993
   10       -2.289000
   13       -1.250731
   14        0.021829
   17        0.131430
   19       -0.167801
   22        0.175667
   24       -0.026703
   27       -0.081330
   31        0.428018
   32       -2.151840
   33       -0.443324
   34        0.544195
   36        0.209171
   37       -1.308675
   39       -0.862143
   40       -0.026138
   41       -0.464853
   43       -0.139009
   45        0.428018
   46       -2.151840
   47       -0.443324
   48       -0.544195
   50        0.209171
   51        1.308675
   53       -0.862143
   54       -0.026138
   55        0.464853
   57       -0.139009
Sym= A
Ene=    4.3411
Spin= Alpha
Occup= 0.0000
   18       -0.108314
   23        1.125402
   28        0.080294
   35        0.130248
   38        0.458579
   42        0.724605
   44        0.573463
   49       -0.130248
   52       -0.458579
   56       -0.724605
   58        0.573463
Sym= A
Ene=    4.4369
Spin= Alpha
Occup= 0.0000
    1       -0.239690
    2       -0.503784
    3        0.144791
    4        1.947733
    7        1.647865
   10       -1.459851
   13       -0.672004
   14        0.077361
   17       -0.070513
   19       -0.672156
   22        1.026929
   24       -0.078667
   27        0.148440
   31       -0.951179
   32       -0.386117
   33        0.334835
   34       -0.176542
   36       -0.520466
   37       -0.006324
   39       -0.252317
   40       -0.546733
   41        0.109267
   43        0.235488
   45       -0.951179
   46       -0.386117
   47        0.334835
   48        0.176542
   50       -0.520466
   51        0.006324
   53       -0.252317
   54       -0.546733
   55       -0.109267
   57        0.235488
Sym= A
Ene=    4.4914
Spin= Alpha
Occup= 0.0000
    5       -1.121634
    8        1.193019
   11        0.376791
   15        0.012705
   20       -0.438302
   25        0.091493
   29       -0.083277
   31       -0.213044
   32        0.965069
   33        0.180538
   34       -0.277387
   36        0.276668
   37        1.000859
   39       -0.177954
   40       -0.518448
   41       -0.296945
   43        0.562627
   45        0.213044
   46       -0.965069
   47       -0.180538
   48       -0.277387
   50       -0.276668
   51        1.000859
   53        0.177954
   54        0.518448
   55       -0.296945
   57       -0.562627
Sym= A
Ene=    4.6871
Spin= Alpha
Occup= 0.0000
    6        1.960017
    9       -2.412375
   12       -0.538817
   16       -0.075262
   21        0.618072
   26        0.173057
   30        0.218816
   35        0.175781
   38        0.285952
   42        0.282857
   44        0.616489
   49        0.175781
   52        0.285952
   56        0.282857
   58       -0.616489
Sym= A
Ene=    4.8689
Spin= Alpha
Occup= 0.0000
    5        0.929593
    8        1.492931
   11        1.111095
   15        0.212320
   20       -1.056612
   25        0.154145
   29        0.251638
   31        0.082633
   32        2.787008
   33        0.189675
   34        0.431528
   36        0.305480
   37        1.402783
   39        0.879407
   40       -0.022220
   41        0.769077
   43        0.781679
   45       -0.082633
   46       -2.787008
   47       -0.189675
   48        0.431528
   50       -0.305480
   51        1.402783
   53       -0.879407
   54        0.022220
   55        0.769077
   57       -0.781679
Sym= A
Ene=    5.1103
Spin= Alpha
Occup= 0.0000
    1        0.298176
    2        2.006124
    3        0.433220
    4        2.884780
    7       -0.721653
   10       -0.624713
   13       -0.657488
   14        0.052109
   17       -0.177625
   19       -0.364629
   22        0.995854
   24       -0.011275
   27       -0.399201
   31       -0.453576
   32       -2.250851
   33        0.056200
   34       -0.355395
   36       -0.514145
   37       -0.968471
   39       -0.777833
   40       -0.219913
   41       -0.815299
   43       -0.446038
   45       -0.453576