 - -GPOPEN  
 - -GPOPEN  
 - -GPOPEN  


     ************************************************************************
     *************** Dalton - An Electronic Structure Program ***************
     ************************************************************************

    This is output from DALTON 2013.1
   ----------------------------------------------------------------------------
    NOTE:
     
    Dalton is an experimental code for the evaluation of molecular
    properties using (MC)SCF, DFT, CI, and CC wave functions.
    The authors accept no responsibility for the performance of
    the code or for the correctness of the results.
     
    The code (in whole or part) is provided under a licence and
    is not to be reproduced for further distribution without
    the written permission of the authors or their representatives.
     
    See the home page "http://daltonprogram.org" for further information.
     
    If results obtained with this code are published,
    the appropriate citations would be both of:
     
       K. Aidas, C. Angeli, K. L. Bak, V. Bakken, R. Bast,
       L. Boman, O. Christiansen, R. Cimiraglia, S. Coriani,
       P. Dahle, E. K. Dalskov, U. Ekstroem, T. Enevoldsen,
       J. J. Eriksen, P. Ettenhuber, B. Fernandez, L. Ferrighi,
       H. Fliegl, L. Frediani, K. Hald, A. Halkier, C. Haettig,
       H. Heiberg, T. Helgaker, A. C. Hennum, H. Hettema,
       E. Hjertenaes, S. Hoest, I.-M. Hoeyvik, M. F. Iozzi,
       B. Jansik, H. J. Aa. Jensen, D. Jonsson, P. Joergensen,
       J. Kauczor, S. Kirpekar, T. Kjaergaard, W. Klopper,
       S. Knecht, R. Kobayashi, H. Koch, J. Kongsted, A. Krapp,
       K. Kristensen, A. Ligabue, O. B. Lutnaes, J. I. Melo,
       K. V. Mikkelsen, R. H. Myhre, C. Neiss, C. B. Nielsen,
       P. Norman, J. Olsen, J. M. H. Olsen, A. Osted,
       M. J. Packer, F. Pawlowski, T. B. Pedersen, P. F. Provasi,
       S. Reine, Z. Rinkevicius, T. A. Ruden, K. Ruud, V. Rybkin,
       P. Salek, C. C. M. Samson, A. Sanchez de Meras, T. Saue,
       S. P. A. Sauer, B. Schimmelpfennig, K. Sneskov,
       A. H. Steindal, K. O. Sylvester-Hvid, P. R. Taylor,
       A. M. Teale, E. I. Tellgren, D. P. Tew, A. J. Thorvaldsen,
       L. Thoegersen, O. Vahtras, M. A. Watson, D. J. D. Wilson,
       M. Ziolkowski and H. Aagren,
       "The Dalton quantum chemistry program system",
       WIREs Comput. Mol. Sci. 2013. (doi: 10.1002/wcms.1172)
    
    and
    
       Dalton, a Molecular Electronic Structure Program,
       Release DALTON2013.1 (2013), see http://daltonprogram.org
   ----------------------------------------------------------------------------

    Authors in alphabetical order (major contribution(s) in parenthesis):

  Kestutis Aidas,           Vilnius University,           Lithuania   (QM/MM)
  Celestino Angeli,         University of Ferrara,        Italy       (NEVPT2)
  Keld L. Bak,              UNI-C,                        Denmark     (AOSOPPA, non-adiabatic coupling, magnetic properties)
  Vebjoern Bakken,          University of Oslo,           Norway      (DALTON; geometry optimizer, symmetry detection)
  Radovan Bast,             KTH Stockholm,                Sweden      (DALTON installation and execution frameworks)
  Linus Boman,              NTNU,                         Norway      (Cholesky decomposition and subsystems)
  Ove Christiansen,         Aarhus University,            Denmark     (CC module)
  Renzo Cimiraglia,         University of Ferrara,        Italy       (NEVPT2)
  Sonia Coriani,            University of Trieste,        Italy       (CC module, MCD in RESPONS)
  Paal Dahle,               University of Oslo,           Norway      (Parallelization)
  Erik K. Dalskov,          UNI-C,                        Denmark     (SOPPA)
  Thomas Enevoldsen,        Univ. of Southern Denmark,    Denmark     (SOPPA)
  Janus J. Eriksen,         Aarhus University,            Denmark     (PE-MP2/SOPPA, TDA)
  Berta Fernandez,          U. of Santiago de Compostela, Spain       (doublet spin, ESR in RESPONS)
  Lara Ferrighi,            Aarhus University,            Denmark     (PCM Cubic response)
  Heike Fliegl,             University of Oslo,           Norway      (CCSD(R12))
  Luca Frediani,            UiT The Arctic U. of Norway,  Norway      (PCM)
  Bin Gao,                  UiT The Arctic U. of Norway,  Norway      (Gen1Int library)
  Christof Haettig,         Ruhr-University Bochum,       Germany     (CC module)
  Kasper Hald,              Aarhus University,            Denmark     (CC module)
  Asger Halkier,            Aarhus University,            Denmark     (CC module)
  Hanne Heiberg,            University of Oslo,           Norway      (geometry analysis, selected one-electron integrals)
  Trygve Helgaker,          University of Oslo,           Norway      (DALTON; ABACUS, ERI, DFT modules, London, and much more)
  Alf Christian Hennum,     University of Oslo,           Norway      (Parity violation)
  Hinne Hettema,            University of Auckland,       New Zealand (quadratic response in RESPONS; SIRIUS supersymmetry)
  Eirik Hjertenaes,         NTNU,                         Norway      (Cholesky decomposition)
  Maria Francesca Iozzi,    University of Oslo,           Norway      (RPA)
  Brano Jansik              Technical Univ. of Ostrava    Czech Rep.  (DFT cubic response)
  Hans Joergen Aa. Jensen,  Univ. of Southern Denmark,    Denmark     (DALTON; SIRIUS, RESPONS, ABACUS modules, London, and much more)
  Dan Jonsson,              UiT The Arctic U. of Norway,  Norway      (cubic response in RESPONS module)
  Poul Joergensen,          Aarhus University,            Denmark     (RESPONS, ABACUS, and CC modules)
  Joanna Kauczor,           Linkoeping University,        Sweden      (Complex polarization propagator (CPP) module)
  Sheela Kirpekar,          Univ. of Southern Denmark,    Denmark     (Mass-velocity & Darwin integrals)
  Wim Klopper,              KIT Karlsruhe,                Germany     (R12 code in CC, SIRIUS, and ABACUS modules)
  Stefan Knecht,            ETH Zurich,                   Switzerland (Parallel CI and MCSCF)
  Rika Kobayashi,           Australian National Univ.,    Australia   (DIIS in CC, London in MCSCF)
  Henrik Koch,              NTNU,                         Norway      (CC module, Cholesky decomposition)
  Jacob Kongsted,           Univ. of Southern Denmark,    Denmark     (Polarizable embedding, QM/MM)
  Andrea Ligabue,           University of Modena,         Italy       (CTOCD, AOSOPPA)
  Ola B. Lutnaes,           University of Oslo,           Norway      (DFT Hessian)
  Juan I. Melo,             University of Buenos Aires,   Argentina   (LRESC, Relativistic Effects on NMR Shieldings)
  Kurt V. Mikkelsen,        University of Copenhagen,     Denmark     (MC-SCRF and QM/MM)
  Rolf H. Myhre,            NTNU,                         Norway      (Cholesky, subsystems and ECC2)
  Christian Neiss,          Univ. Erlangen-Nuernberg,     Germany     (CCSD(R12))
  Christian B. Nielsen,     University of Copenhagen,     Denmark     (QM/MM)
  Patrick Norman,           Linkoeping University,        Sweden      (Cubic response and complex response in RESPONS)
  Jeppe Olsen,              Aarhus University,            Denmark     (SIRIUS CI/density modules)
  Jogvan Magnus H. Olsen,   Univ. of Southern Denmark,    Denmark     (Polarizable embedding, PE library, QM/MM)
  Anders Osted,             Copenhagen University,        Denmark     (QM/MM)
  Martin J. Packer,         University of Sheffield,      UK          (SOPPA)
  Filip Pawlowski,          Kazimierz Wielki University,  Poland      (CC3)
  Thomas B. Pedersen,       University of Oslo,           Norway      (Cholesky decomposition)
  Patricio F. Provasi,      University of Northeastern,   Argentina   (Analysis of coupling constants in localized orbitals)
  Zilvinas Rinkevicius,     KTH Stockholm,                Sweden      (open-shell DFT, ESR)
  Elias Rudberg,            KTH Stockholm,                Sweden      (DFT grid and basis info)
  Torgeir A. Ruden,         University of Oslo,           Norway      (Numerical derivatives in ABACUS)
  Kenneth Ruud,             UiT The Arctic U. of Norway,  Norway      (DALTON; ABACUS magnetic properties and  much more)
  Pawel Salek,              KTH Stockholm,                Sweden      (DALTON; DFT code)
  Claire C. M. Samson       University of Karlsruhe       Germany     (Boys localization, r12 integrals in ERI)
  Alfredo Sanchez de Meras, University of Valencia,       Spain       (CC module, Cholesky decomposition)
  Trond Saue,               Paul Sabatier University,     France      (direct Fock matrix construction)
  Stephan P. A. Sauer,      University of Copenhagen,     Denmark     (SOPPA(CCSD), SOPPA prop., AOSOPPA, vibrational g-factors)
  Bernd Schimmelpfennig,    Forschungszentrum Karlsruhe,  Germany     (AMFI module)
  Kristian Sneskov,         Aarhus University,            Denmark     (QM/MM, PE-CC)
  Arnfinn H. Steindal,      UiT The Arctic U. of Norway,  Norway      (parallel QM/MM)
  K. O. Sylvester-Hvid,     University of Copenhagen,     Denmark     (MC-SCRF)
  Peter R. Taylor,          VLSCI/Univ. of Melbourne,     Australia   (Symmetry handling ABACUS, integral transformation)
  Andrew M. Teale,          University of Nottingham,     England     (DFT-AC, DFT-D)
  David P. Tew,             University of Bristol,        England     (CCSD(R12))
  Olav Vahtras,             KTH Stockholm,                Sweden      (triplet response, spin-orbit, ESR, TDDFT, open-shell DFT)
  David J. Wilson,          La Trobe University,          Australia   (DFT Hessian and DFT magnetizabilities)
  Hans Agren,               KTH Stockholm,                Sweden      (SIRIUS module, RESPONS, MC-SCRF solvation model)
 --------------------------------------------------------------------------------

     Date and time (Linux)  : Tue Mar  4 23:25:35 2014
     Host name              : ubuntu                                  

 * Work memory size             :    64000000 =  488.28 megabytes.

 * Directories for basis set searches:
   1) /home/olav/dev/dalton/git/basis


Compilation information
-----------------------

 Who compiled             | olav
 Host                     | ubuntu
 System                   | Linux-3.8.0-35-generic
 CMake generator          | Unix Makefiles
 Processor                | x86_64
 64-bit integers          | OFF
 MPI                      | OFF
 Fortran compiler         | /usr/bin/gfortran
 Fortran compiler version | GNU Fortran (Ubuntu/Linaro 4.6.3-1ubuntu5) 4.6.3
 C compiler               | /usr/bin/gcc
 C compiler version       | gcc (Ubuntu/Linaro 4.6.3-1ubuntu5) 4.6.3
 C++ compiler             | /usr/bin/g++
 C++ compiler version     | g++ (Ubuntu/Linaro 4.6.3-1ubuntu5) 4.6.3
 BLAS                     | /usr/lib/libblas.so
 LAPACK                   | /usr/lib/liblapack.so
 Static linking           | OFF
 Last Git revision        | ee82faa0d7530e83310be9e8931b40f1dc54229e
 Git branch               | beta_ignat
 Configuration time       | 2014-02-17 15:47:48.297280
 - -GPOPEN  


   Content of the .dal input file
 ----------------------------------

**DALTON INPUT                                    
.RUN RESP                                         
*END OF GENERAL                                   
**WAVE FUNCTION                                   
.INTERFACE                                        
.HF                                               
**INTEGRAL                                        
.NOSUP                                            
.DIPLEN                                           
.SECMOM                                           
**RESPONSE                                        
*QUADRATIC                                        
.QLOP                                             
.DIPLEN                                           
*END OF                                           
                                                  
 - -GPOPEN  


   Content of the .mol file
 ----------------------------

# DALTON.BAS with INTGRL directive created 14Nov12  18:22:53                   
# Directive in input mol file was:                                             
# > BASIS                                                                      
# > cc-pVTZ                                                                    
INTGRL                                                                         
Molcas                                                                         
test013                                                                        
    2  0 0            0.10D-11                                                 
        8.    1    4    1    1    1    1                                       
O      0.3173510316237     0.4942449480779     0.3771384127952                 
H  10    4                                                                     
    15330.0000000000        0.0005080000       -0.0001150000        0.000000000
                            0.0000000000                                       
     2299.0000000000        0.0039290000       -0.0008950000        0.000000000
                            0.0000000000                                       
      522.4000000000        0.0202430000       -0.0046360000        0.000000000
                            0.0000000000                                       
      147.3000000000        0.0791810000       -0.0187240000        0.000000000
                            0.0000000000                                       
       47.5500000000        0.2306870000       -0.0584630000        0.000000000
                            0.0000000000                                       
       16.7600000000        0.4331180000       -0.1364630000        0.000000000
                            0.0000000000                                       
        6.2070000000        0.3502600000       -0.1757400000        0.000000000
                            0.0000000000                                       
        1.7520000000        0.0427280000        0.1609340000        1.000000000
                            0.0000000000                                       
        0.6882000000       -0.0081540000        0.6034180000        0.000000000
                            0.0000000000                                       
        0.2384000000        0.0023810000        0.3787650000        0.000000000
                            1.0000000000                                       
H   5    3                                                                     
       34.4600000000        0.0159280000        0.0000000000        0.000000000
        7.7490000000        0.0997400000        0.0000000000        0.000000000
        2.2800000000        0.3104920000        0.0000000000        0.000000000
        0.7156000000        0.4910260000        1.0000000000        0.000000000
        0.2140000000        0.3363370000        0.0000000000        1.000000000
H   2    2                                                                     
        2.3140000000        1.0000000000        0.0000000000                   
        0.6450000000        0.0000000000        1.0000000000                   
H   1    1                                                                     
        1.4280000000        1.0000000000                                       
        1.    2    3    1    1    1                                            
H1      0.6566601803288    -1.2846114982596     0.4849927432717                
H2     -0.9740112119524     0.7903665501817    -0.8621311560669                
H   5    3                                                                     
       33.8700000000        0.0060680000        0.0000000000        0.000000000
        5.0950000000        0.0453080000        0.0000000000        0.000000000
        1.1590000000        0.2028220000        0.0000000000        0.000000000
        0.3258000000        0.5039030000        1.0000000000        0.000000000
        0.1027000000        0.3834210000        0.0000000000        1.000000000
H   2    2                                                                     
        1.4070000000        1.0000000000        0.0000000000                   
        0.3880000000        0.0000000000        1.0000000000                   
H   1    1                                                                     
        1.0570000000        1.0000000000                                       
 - -DALTON_G


       *******************************************************************
       *********** Output from DALTON general input processing ***********
       *******************************************************************

 - - -GPOPEN  
 --------------------------------------------------------------------------------
   Overall default print level:    0
   Print level for DALTON.STAT:    1

    HERMIT 1- and 2-electron integral sections will be executed
    "Old" integral transformation used (limited to max 255 basis functions)
    Wave function sections will be executed (SIRIUS module)
    Dynamic molecular response properties section will be executed (RESPONSE module)
 --------------------------------------------------------------------------------
 - -GPOPEN  
 - -GPOPEN  
 - -DALTON  
 - - -HERMIT  
 - - - -READIN  
 - - - - -GPOPEN  


   ****************************************************************************
   *************** Output of molecule and basis set information ***************
   ****************************************************************************

 - - - - -GPOPEN  
 - - - - -READ_MOL

    The two title cards from your ".mol" input:
    ------------------------------------------------------------------------
 1: Molcas                                                                  
 2: test013                                                                 
    ------------------------------------------------------------------------

  Atomic type no.    1
  --------------------
  Nuclear charge:   8.00000
  Number of symmetry independent centers:    1
  Number of basis sets to read;    2
 - - - - - -BASLIB  
 - - - - - - -GPOPEN  

  Atomic type no.    2
  --------------------
  Nuclear charge:   1.00000
  Number of symmetry independent centers:    2
  Number of basis sets to read;    2
 - - - - - -BASLIB  
 - - - - - - -GPOPEN  


                         SYMGRP: Point group information
                         -------------------------------

Point group: C1 
 - - - - - -NUCPRO  


                                 Isotopic Masses
                                 ---------------

                           O          15.994915
                           H1          1.007825
                           H2          1.007825

                       Total mass:    18.010565 amu
                       Natural abundance:  99.730 %

 Center-of-mass coordinates (a.u.):    0.264077    0.411275    0.313827


  Atoms and basis sets
  --------------------

  Number of atom types :    2
  Total number of atoms:    3

  label    atoms   charge   prim   cont     basis
  ----------------------------------------------------------------------
  O           1    8.0000    42    30      [10s5p2d1f|4s3p2d1f]                               
  H2          2    1.0000    16    14      [5s2p1d|3s2p1d]                                    
  ----------------------------------------------------------------------
  total:      3   10.0000    74    58
  ----------------------------------------------------------------------
  Spherical harmonic basis used.

  Threshold for neglecting AO integrals:  1.00D-12


  Cartesian Coordinates (a.u.)
  ----------------------------

  Total number of coordinates:    9
 - - - - - -GPOPEN  
  O       :     1  x   0.3173510316    2  y   0.4942449481    3  z   0.3771384128
  H1      :     4  x   0.6566601803    5  y  -1.2846114983    6  z   0.4849927433
  H2      :     7  x  -0.9740112120    8  y   0.7903665502    9  z  -0.8621311561
 - - - - - -GEOANA  


   Interatomic separations (in Angstrom):
   --------------------------------------

            O           H1          H2    
            ------      ------      ------
 O     :    0.000000
 H1    :    0.960000    0.000000
 H2    :    0.960000    1.567952    0.000000


  Max    interatomic separation is    1.5680 Angstrom (    2.9630 Bohr)
  between atoms    3 and    2, "H2    " and "H1    ".

  Min HX interatomic separation is    0.9600 Angstrom (    1.8141 Bohr)


  Bond distances (Angstrom):
  --------------------------

                  atom 1     atom 2       distance
                  ------     ------       --------
  bond distance:  H1         O            0.960000
  bond distance:  H2         O            0.960000


  Bond angles (degrees):
  ----------------------

                  atom 1     atom 2     atom 3         angle
                  ------     ------     ------         -----
  bond angle:     H1         O          H2           109.500


 - - - - - - -MEMREL  
 - - - - - -JACO    


 Principal moments of inertia (u*A**2) and principal axes
 --------------------------------------------------------

   IA       0.549519          0.550345   -0.700296    0.454649
   IB       1.238855          0.454649    0.708073    0.540302
   IC       1.788374         -0.700296   -0.090647    0.708073


 Rotational constants
 --------------------

 The molecule is planar.

               A                   B                   C

         919675.8762         407940.3371         282591.3718 MHz
           30.677085           13.607425            9.426234 cm-1


@  Nuclear repulsion energy :    9.157115797736 Hartree
 - - - - - -GPOPEN  
 - - - - - -GPOPEN  
 - - - - - -GPOPEN  
 - - - - - -GPOPEN  
 - - - - - -GPOPEN  


                     .---------------------------------------.
                     | Starting in Integral Section (HERMIT) |
                     `---------------------------------------'

 - - - -HERCTL  
 - - - - -GPOPEN  
 - - - - -HERINP  
 - - - - - -GPOPEN  


    *************************************************************************
    ****************** Output from HERMIT input processing ******************
    *************************************************************************


 Default print level:        1

 * Nuclear model: Point charge

 Calculation of one- and two-electron Hamiltonian integrals.

 The following one-electron property integrals are calculated as requested:
          - overlap integrals
          - dipole length integrals
          - second moment integrals

 Center of mass  (bohr):      0.264076583524      0.411274911081      0.313827319411
 Operator center (bohr):      0.000000000000      0.000000000000      0.000000000000
 Gauge origin    (bohr):      0.000000000000      0.000000000000      0.000000000000
 Dipole origin   (bohr):      0.000000000000      0.000000000000      0.000000000000
 - - - - - -HR1INP  
 - - - - - -HR2INP  
 - - - - - -HRSINP  
 - - - - -GPOPEN  
 - - - - -GPOPEN  
 - - - - -GPOPEN  
 - - - - -GPOPEN  
 - - - - -GPOPEN  
 - - - - -GPOPEN  
 - - - - -HERINT  


     ************************************************************************
     ************************** Output from HERINT **************************
     ************************************************************************

 - - - - - -ONEDRV  
 - - - - - - -ONESOP  
 - - - - - - - -MEMREL  
 - - - - - - - -MEMREL  
 - - - - - - -ONESOP  
 - - - - - - - -MEMREL  
 - - - - - - - -MEMREL  
 - - - - - - -ONESOP  
 - - - - - - - -MEMREL  
 - - - - - - - -MEMREL  
 - - - - - - -ONESOP  
 - - - - - - - -MEMREL  
 - - - - - - - -MEMREL  
 - - - - - - -ONESOP  
 - - - - - - - -MEMREL  
 - - - - - - - -MEMREL  
 - - - - - - -ONESOP  
 - - - - - - - -MEMREL  
 - - - - - - - -MEMREL  
 - - - - - - -ONESOP  
 - - - - - - - -MEMREL  
 - - - - - - - -MEMREL  
 - - - - - - -ONESOP  
 - - - - - - - -MEMREL  
 - - - - - - - -MEMREL  
 - - - - - - -ONESOP  
 - - - - - - - -MEMREL  
 - - - - - - - -MEMREL  
 - - - - - - -ONESOP  
 - - - - - - - -MEMREL  
 - - - - - - - -MEMREL  
 - - - - - - -ONESOP  
 - - - - - - - -MEMREL  
 - - - - - - - -MEMREL  
 - - - - - - -ONESOP  
 - - - - - - - -MEMREL  
 - - - - - - - -MEMREL  
 - - - - - - -ONESOP  
 - - - - - - - -MEMREL  
 - - - - - - - -MEMREL  
 - - - - - - -ONESOP  
 - - - - - - - -MEMREL  
 - - - - - - - -MEMREL  
 - - - - - - -ONESOP  
 - - - - - - - -MEMREL  
 - - - - - - - -MEMREL  
 - - - - - - -ONESOP  
 - - - - - - - -MEMREL  
 - - - - - - - -MEMREL  
 - - - - - - -ONESOP  
 - - - - - - - -MEMREL  
 - - - - - - - -MEMREL  
 - - - - - - -ONESOP  
 - - - - - - - -MEMREL  
 - - - - - - - -MEMREL  
 - - - - - - -ONESOP  
 - - - - - - - -MEMREL  
 - - - - - - - -MEMREL  
 - - - - - - -ONESOP  
 - - - - - - - -MEMREL  
 - - - - - - - -MEMREL  
 - - - - - - -ONESOP  
 - - - - - - - -MEMREL  
 - - - - - - - -MEMREL  
 - - - - - - -ONESOP  
 - - - - - - - -MEMREL  
 - - - - - - - -MEMREL  
 - - - - - - -ONESOP  
 - - - - - - - -MEMREL  
 - - - - - - - -MEMREL  
 - - - - - - -ONESOP  
 - - - - - - - -MEMREL  
 - - - - - - - -MEMREL  
 - - - - - - -ONESOP  
 - - - - - - - -MEMREL  
 - - - - - - - -MEMREL  
 - - - - - - -ONESOP  
 - - - - - - - -MEMREL  
 - - - - - - - -MEMREL  
 - - - - - - -ONESOP  
 - - - - - - - -MEMREL  
 - - - - - - - -MEMREL  
 - - - - - - -ONESOP  
 - - - - - - - -MEMREL  
 - - - - - - - -MEMREL  
 - - - - - - -ONESOP  
 - - - - - - - -MEMREL  
 - - - - - - - -MEMREL  
 - - - - - - -ONESOP  
 - - - - - - - -MEMREL  
 - - - - - - - -MEMREL  
 - - - - - - -ONESOP  
 - - - - - - - -MEMREL  
 - - - - - - - -MEMREL  
 - - - - - - -ONESOP  
 - - - - - - - -MEMREL  
 - - - - - - - -MEMREL  
 - - - - - - -ONESOP  
 - - - - - - - -MEMREL  
 - - - - - - - -MEMREL  
 - - - - - - -ONESOP  
 - - - - - - - -MEMREL  
 - - - - - - - -MEMREL  
 - - - - - - -ONESOP  
 - - - - - - - -MEMREL  
 - - - - - - - -MEMREL  
 - - - - - - -ONESOP  
 - - - - - - - -MEMREL  
 - - - - - - - -MEMREL  
 - - - - - - -ONESOP  
 - - - - - - - -MEMREL  
 - - - - - - - -MEMREL  
 - - - - - - -ONESOP  
 - - - - - - - -MEMREL  
 - - - - - - - -MEMREL  
 - - - - - - -ONESOP  
 - - - - - - - -MEMREL  
 - - - - - - - -MEMREL  
 - - - - - - -ONESOP  
 - - - - - - - -MEMREL  
 - - - - - - - -MEMREL  
 - - - - - - -ONESOP  
 - - - - - - - -MEMREL  
 - - - - - - - -MEMREL  
 - - - - - - -ONESOP  
 - - - - - - - -MEMREL  
 - - - - - - - -MEMREL  
 - - - - - - -ONESOP  
 - - - - - - - -MEMREL  
 - - - - - - - -MEMREL  
 - - - - - - -ONESOP  
 - - - - - - - -MEMREL  
 - - - - - - - -MEMREL  
 - - - - - - -ONESOP  
 - - - - - - - -MEMREL  
 - - - - - - - -MEMREL  
 - - - - - - -ONESOP  
 - - - - - - - -MEMREL  
 - - - - - - - -MEMREL  
 - - - - - - -ONESOP  
 - - - - - - - -MEMREL  
 - - - - - - - -MEMREL  
 - - - - - - -ONESOP  
 - - - - - - - -MEMREL  
 - - - - - - - -MEMREL  
 - - - - - - -ONESOP  
 - - - - - - - -MEMREL  
 - - - - - - - -MEMREL  
 - - - - - - -ONESOP  
 - - - - - - - -MEMREL  
 - - - - - - - -MEMREL  
 - - - - - - -ONESOP  
 - - - - - - - -MEMREL  
 - - - - - - - -MEMREL  
 - - - - - - -ONESOP  
 - - - - - - - -MEMREL  
 - - - - - - - -MEMREL  
 - - - - - - -ONESOP  
 - - - - - - - -MEMREL  
 - - - - - - - -MEMREL  
 - - - - - - -ONESOP  
 - - - - - - - -MEMREL  
 - - - - - - - -MEMREL  
 - - - - - - -ONESOP  
 - - - - - - - -MEMREL  
 - - - - - - - -MEMREL  
 - - - - - - -ONESOP  
 - - - - - - - -MEMREL  
 - - - - - - - -MEMREL  
 - - - - - - -ONESOP  
 - - - - - - - -MEMREL  
 - - - - - - - -MEMREL  
 - - - - - - -ONESOP  
 - - - - - - - -MEMREL  
 - - - - - - - -MEMREL  
 - - - - - - -ONESOP  
 - - - - - - - -MEMREL  
 - - - - - - - -MEMREL  
 - - - - - - -ONESOP  
 - - - - - - - -MEMREL  
 - - - - - - - -MEMREL  
 - - - - - - -ONESOP  
 - - - - - - - -MEMREL  
 - - - - - - - -MEMREL  
 - - - - - - -ONESOP  
 - - - - - - - -MEMREL  
 - - - - - - - -MEMREL  
 - - - - - - -ONESOP  
 - - - - - - - -MEMREL  
 - - - - - - - -MEMREL  
 - - - - - - -ONESOP  
 - - - - - - - -MEMREL  
 - - - - - - - -MEMREL  
 - - - - - - -ONESOP  
 - - - - - - - -MEMREL  
 - - - - - - - -MEMREL  
 - - - - - - -ONESOP  
 - - - - - - - -MEMREL  
 - - - - - - - -MEMREL  
 - - - - - - -ONESOP  
 - - - - - - - -MEMREL  
 - - - - - - - -MEMREL  
 - - - - - - -ONESOP  
 - - - - - - - -MEMREL  
 - - - - - - - -MEMREL  
 - - - - - - -ONESOP  
 - - - - - - - -MEMREL  
 - - - - - - - -MEMREL  
 - - - - - - -ONESOP  
 - - - - - - - -MEMREL  
 - - - - - - - -MEMREL  
 - - - - - - -ONESOP  
 - - - - - - - -MEMREL  
 - - - - - - - -MEMREL  
 - - - - - - -ONESOP  
 - - - - - - - -MEMREL  
 - - - - - - - -MEMREL  
 - - - - - - -ONESOP  
 - - - - - - - -MEMREL  
 - - - - - - - -MEMREL  
 - - - - - - -ONESOP  
 - - - - - - - -MEMREL  
 - - - - - - - -MEMREL  
 - - - - - - -ONESOP  
 - - - - - - - -MEMREL  
 - - - - - - - -MEMREL  
 - - - - - - -ONESOP  
 - - - - - - - -MEMREL  
 - - - - - - - -MEMREL  
 - - - - - - -ONESOP  
 - - - - - - - -MEMREL  
 - - - - - - - -MEMREL  
 - - - - - - -ONESOP  
 - - - - - - - -MEMREL  
 - - - - - - - -MEMREL  
 - - - - - - -ONESOP  
 - - - - - - - -MEMREL  
 - - - - - - - -MEMREL  
 - - - - - - -ONESOP  
 - - - - - - - -MEMREL  
 - - - - - - - -MEMREL  
 - - - - - - -ONESOP  
 - - - - - - - -MEMREL  
 - - - - - - - -MEMREL  
 - - - - - - -ONESOP  
 - - - - - - - -MEMREL  
 - - - - - - - -MEMREL  
 - - - - - - -ONESOP  
 - - - - - - - -MEMREL  
 - - - - - - - -MEMREL  
 - - - - - - -ONESOP  
 - - - - - - - -MEMREL  
 - - - - - - - -MEMREL  
 - - - - - - -ONESOP  
 - - - - - - - -MEMREL  
 - - - - - - - -MEMREL  
 - - - - - - -ONESOP  
 - - - - - - - -MEMREL  
 - - - - - - - -MEMREL  
 - - - - - - -ONESOP  
 - - - - - - - -MEMREL  
 - - - - - - - -MEMREL  
 - - - - - - -ONESOP  
 - - - - - - - -MEMREL  
 - - - - - - - -MEMREL  
 - - - - - - -ONESOP  
 - - - - - - - -MEMREL  
 - - - - - - - -MEMREL  
 - - - - - - -ONESOP  
 - - - - - - - -MEMREL  
 - - - - - - - -MEMREL  
 - - - - - - -ONESOP  
 - - - - - - - -MEMREL  
 - - - - - - - -MEMREL  
 - - - - - - -ONESOP  
 - - - - - - - -MEMREL  
 - - - - - - - -MEMREL  
 - - - - - - -ONESOP  
 - - - - - - - -MEMREL  
 - - - - - - - -MEMREL  
 - - - - - - -ONESOP  
 - - - - - - - -MEMREL  
 - - - - - - - -MEMREL  
 - - - - - - -ONESOP  
 - - - - - - - -MEMREL  
 - - - - - - - -MEMREL  
 - - - - - - -ONESOP  
 - - - - - - - -MEMREL  
 - - - - - - - -MEMREL  
 - - - - - - -ONESOP  
 - - - - - - - -MEMREL  
 - - - - - - - -MEMREL  
 - - - - - - -ONESOP  
 - - - - - - - -MEMREL  
 - - - - - - - -MEMREL  
 - - - - - - -ONESOP  
 - - - - - - - -MEMREL  
 - - - - - - - -MEMREL  
 - - - - - - -ONESOP  
 - - - - - - - -MEMREL  
 - - - - - - - -MEMREL  
 - - - - - - -ONESOP  
 - - - - - - - -MEMREL  
 - - - - - - - -MEMREL  
 - - - - - - -ONESOP  
 - - - - - - - -MEMREL  
 - - - - - - - -MEMREL  
 - - - - - - -ONESOP  
 - - - - - - - -MEMREL  
 - - - - - - - -MEMREL  
 - - - - - - -ONESOP  
 - - - - - - - -MEMREL  
 - - - - - - - -MEMREL  
 - - - - - - -ONESOP  
 - - - - - - - -MEMREL  
 - - - - - - - -MEMREL  
 - - - - - - -ONESOP  
 - - - - - - - -MEMREL  
 - - - - - - - -MEMREL  
 - - - - - - -ONESOP  
 - - - - - - - -MEMREL  
 - - - - - - - -MEMREL  
 - - - - - - -ONESOP  
 - - - - - - - -MEMREL  
 - - - - - - - -MEMREL  
 - - - - - - -ONESOP  
 - - - - - - - -MEMREL  
 - - - - - - - -MEMREL  
 - - - - - - -ONESOP  
 - - - - - - - -MEMREL  
 - - - - - - - -MEMREL  
 - - - - - - -ONESOP  
 - - - - - - - -MEMREL  
 - - - - - - - -MEMREL  
 - - - - - - -ONESOP  
 - - - - - - - -MEMREL  
 - - - - - - - -MEMREL  
 - - - - - - -ONESOP  
 - - - - - - - -MEMREL  
 - - - - - - - -MEMREL  
 - - - - - - -ONESOP  
 - - - - - - - -MEMREL  
 - - - - - - - -MEMREL  
 - - - - - - -ONESOP  
 - - - - - - - -MEMREL  
 - - - - - - - -MEMREL  
 - - - - - - -ONESOP  
 - - - - - - - -MEMREL  
 - - - - - - - -MEMREL  
 - - - - - - -ONESOP  
 - - - - - - - -MEMREL  
 - - - - - - - -MEMREL  
 - - - - - - -ONESOP  
 - - - - - - - -MEMREL  
 - - - - - - - -MEMREL  
 - - - - - - -ONESOP  
 - - - - - - - -MEMREL  
 - - - - - - - -MEMREL  
 - - - - - - -ONESOP  
 - - - - - - - -MEMREL  
 - - - - - - - -MEMREL  
 - - - - - - -ONESOP  
 - - - - - - - -MEMREL  
 - - - - - - - -MEMREL  
 - - - - - - -ONESOP  
 - - - - - - - -MEMREL  
 - - - - - - - -MEMREL  
 - - - - - - -ONESOP  
 - - - - - - - -MEMREL  
 - - - - - - - -MEMREL  
 - - - - - - -ONESOP  
 - - - - - - - -MEMREL  
 - - - - - - - -MEMREL  
 - - - - - - -ONESOP  
 - - - - - - - -MEMREL  
 - - - - - - - -MEMREL  
 - - - - - - -ONESOP  
 - - - - - - - -MEMREL  
 - - - - - - - -MEMREL  
 - - - - - - -ONESOP  
 - - - - - - - -MEMREL  
 - - - - - - - -MEMREL  
 - - - - - - -ONESOP  
 - - - - - - - -MEMREL  
 - - - - - - - -MEMREL  
 - - - - - - -ONESOP  
 - - - - - - - -MEMREL  
 - - - - - - - -MEMREL  
 - - - - - - -ONESOP  
 - - - - - - - -MEMREL  
 - - - - - - - -MEMREL  
 - - - - - - -ONESOP  
 - - - - - - - -MEMREL  
 - - - - - - - -MEMREL  
 - - - - - - -ONESOP  
 - - - - - - - -MEMREL  
 - - - - - - - -MEMREL  
 - - - - - - -ONESOP  
 - - - - - - - -MEMREL  
 - - - - - - - -MEMREL  
 - - - - - - -ONESOP  
 - - - - - - - -MEMREL  
 - - - - - - - -MEMREL  
 - - - - - - -ONESOP  
 - - - - - - - -MEMREL  
 - - - - - - - -MEMREL  
 - - - - - - -ONESOP  
 - - - - - - - -MEMREL  
 - - - - - - - -MEMREL  
 - - - - - - -ONESOP  
 - - - - - - - -MEMREL  
 - - - - - - - -MEMREL  
 - - - - - - -ONESOP  
 - - - - - - - -MEMREL  
 - - - - - - - -MEMREL  
 - - - - - - -ONESOP  
 - - - - - - - -MEMREL  
 - - - - - - - -MEMREL  
 - - - - - - -ONESOP  
 - - - - - - - -MEMREL  
 - - - - - - - -MEMREL  
 - - - - - - -ONESOP  
 - - - - - - - -MEMREL  
 - - - - - - - -MEMREL  
 - - - - - - -ONESOP  
 - - - - - - - -MEMREL  
 - - - - - - - -MEMREL  
 - - - - - - -ONESOP  
 - - - - - - - -MEMREL  
 - - - - - - - -MEMREL  
 - - - - - - -ONESOP  
 - - - - - - - -MEMREL  
 - - - - - - - -MEMREL  
 - - - - - - -ONESOP  
 - - - - - - - -MEMREL  
 - - - - - - - -MEMREL  
 - - - - - - -ONESOP  
 - - - - - - - -MEMREL  
 - - - - - - - -MEMREL  
 - - - - - - -ONESOP  
 - - - - - - - -MEMREL  
 - - - - - - - -MEMREL  
 - - - - - - -ONESOP  
 - - - - - - - -MEMREL  
 - - - - - - - -MEMREL  
 - - - - - - -ONESOP  
 - - - - - - - -MEMREL  
 - - - - - - - -MEMREL  
 - - - - - - -ONESOP  
 - - - - - - - -MEMREL  
 - - - - - - - -MEMREL  
 - - - - - - -ONESOP  
 - - - - - - - -MEMREL  
 - - - - - - - -MEMREL  
 - - - - - - -ONESOP  
 - - - - - - - -MEMREL  
 - - - - - - - -MEMREL  
 - - - - - - -ONESOP  
 - - - - - - - -MEMREL  
 - - - - - - - -MEMREL  
 - - - - - - -ONESOP  
 - - - - - - - -MEMREL  
 - - - - - - - -MEMREL  
 - - - - - - -ONESOP  
 - - - - - - - -MEMREL  
 - - - - - - - -MEMREL  
 - - - - - - -ONESOP  
 - - - - - - - -MEMREL  
 - - - - - - - -MEMREL  
 - - - - - - -ONESOP  
 - - - - - - - -MEMREL  
 - - - - - - - -MEMREL  
 - - - - - - -ONESOP  
 - - - - - - - -MEMREL  
 - - - - - - - -MEMREL  
 - - - - - - -ONESOP  
 - - - - - - - -MEMREL  
 - - - - - - - -MEMREL  
 - - - - - - -ONESOP  
 - - - - - - - -MEMREL  
 - - - - - - - -MEMREL  
 - - - - - - -ONESOP  
 - - - - - - - -MEMREL  
 - - - - - - - -MEMREL  
 - - - - - - -ONESOP  
 - - - - - - - -MEMREL  
 - - - - - - - -MEMREL  
 - - - - - - -ONESOP  
 - - - - - - - -MEMREL  
 - - - - - - - -MEMREL  
 - - - - - - -ONESOP  
 - - - - - - - -MEMREL  
 - - - - - - - -MEMREL  
 - - - - - - -ONESOP  
 - - - - - - - -MEMREL  
 - - - - - - - -MEMREL  
 - - - - - - -ONESOP  
 - - - - - - - -MEMREL  
 - - - - - - - -MEMREL  
 - - - - - - -ONESOP  
 - - - - - - - -MEMREL  
 - - - - - - - -MEMREL  
 - - - - - - -ONESOP  
 - - - - - - - -MEMREL  
 - - - - - - - -MEMREL  
 - - - - - - -ONESOP  
 - - - - - - - -MEMREL  
 - - - - - - - -MEMREL  
 - - - - - - -ONESOP  
 - - - - - - - -MEMREL  
 - - - - - - - -MEMREL  
 - - - - - - -ONESOP  
 - - - - - - - -MEMREL  
 - - - - - - - -MEMREL  
 - - - - - - -ONESOP  
 - - - - - - - -MEMREL  
 - - - - - - - -MEMREL  
 - - - - - - -ONESOP  
 - - - - - - - -MEMREL  
 - - - - - - - -MEMREL  
 - - - - - - -ONESOP  
 - - - - - - - -MEMREL  
 - - - - - - - -MEMREL  
 - - - - - - -ONESOP  
 - - - - - - - -MEMREL  
 - - - - - - - -MEMREL  
 - - - - - - -ONESOP  
 - - - - - - - -MEMREL  
 - - - - - - - -MEMREL  
 - - - - - - -ONESOP  
 - - - - - - - -MEMREL  
 - - - - - - - -MEMREL  
 - - - - - - -ONESOP  
 - - - - - - - -MEMREL  
 - - - - - - - -MEMREL  
 - - - - - - -ONESOP  
 - - - - - - - -MEMREL  
 - - - - - - - -MEMREL  
 - - - - - - -ONESOP  
 - - - - - - - -MEMREL  
 - - - - - - - -MEMREL  
 - - - - - - -ONESOP  
 - - - - - - - -MEMREL  
 - - - - - - - -MEMREL  
 - - - - - - -ONESOP  
 - - - - - - - -MEMREL  
 - - - - - - - -MEMREL  
 - - - - - - -ONESOP  
 - - - - - - - -MEMREL  
 - - - - - - - -MEMREL  
 - - - - - - -ONESOP  
 - - - - - - - -MEMREL  
 - - - - - - - -MEMREL  
 - - - - - - -ONESOP  
 - - - - - - - -MEMREL  
 - - - - - - - -MEMREL  
 - - - - - - -ONESOP  
 - - - - - - - -MEMREL  
 - - - - - - - -MEMREL  
 - - - - - - -ONESOP  
 - - - - - - - -MEMREL  
 - - - - - - - -MEMREL  
 - - - - - - -ONESOP  
 - - - - - - - -MEMREL  
 - - - - - - - -MEMREL  
 - - - - - - -ONESOP  
 - - - - - - - -MEMREL  
 - - - - - - - -MEMREL  
 - - - - - - -ONESOP  
 - - - - - - - -MEMREL  
 - - - - - - - -MEMREL  
 - - - - - - -ONESOP  
 - - - - - - - -MEMREL  
 - - - - - - - -MEMREL  
 - - - - - - -ONESOP  
 - - - - - - - -MEMREL  
 - - - - - - - -MEMREL  
 - - - - - - -ONESOP  
 - - - - - - - -MEMREL  
 - - - - - - - -MEMREL  
 - - - - - - -ONESOP  
 - - - - - - - -MEMREL  
 - - - - - - - -MEMREL  
 - - - - - - -ONESOP  
 - - - - - - - -MEMREL  
 - - - - - - - -MEMREL  
 - - - - - - -ONESOP  
 - - - - - - - -MEMREL  
 - - - - - - - -MEMREL  
 - - - - - - -ONESOP  
 - - - - - - - -MEMREL  
 - - - - - - - -MEMREL  
 - - - - - - -ONESOP  
 - - - - - - - -MEMREL  
 - - - - - - - -MEMREL  
 - - - - - - -ONESOP  
 - - - - - - - -MEMREL  
 - - - - - - - -MEMREL  
 - - - - - - -ONESOP  
 - - - - - - - -MEMREL  
 - - - - - - - -MEMREL  
 - - - - - - -ONESOP  
 - - - - - - - -MEMREL  
 - - - - - - - -MEMREL  
 - - - - - - -ONESOP  
 - - - - - - - -MEMREL  
 - - - - - - - -MEMREL  
 - - - - - - -ONESOP  
 - - - - - - - -MEMREL  
 - - - - - - - -MEMREL  
 - - - - - - -ONESOP  
 - - - - - - - -MEMREL  
 - - - - - - - -MEMREL  
 - - - - - - -ONESOP  
 - - - - - - - -MEMREL  
 - - - - - - - -MEMREL  
 - - - - - - -ONESOP  
 - - - - - - - -MEMREL  
 - - - - - - - -MEMREL  
 - - - - - - -ONESOP  
 - - - - - - - -MEMREL  
 - - - - - - - -MEMREL  
 - - - - - - -ONESOP  
 - - - - - - - -MEMREL  
 - - - - - - - -MEMREL  
 - - - - - - -ONESOP  
 - - - - - - - -MEMREL  
 - - - - - - - -MEMREL  
 - - - - - - -ONESOP  
 - - - - - - - -MEMREL  
 - - - - - - - -MEMREL  
 - - - - - - -ONESOP  
 - - - - - - - -MEMREL  
 - - - - - - - -MEMREL  
 - - - - - - -ONESOP  
 - - - - - - - -MEMREL  
 - - - - - - - -MEMREL  
 - - - - - - -ONESOP  
 - - - - - - - -MEMREL  
 - - - - - - - -MEMREL  
 - - - - - - -ONESOP  
 - - - - - - - -MEMREL  
 - - - - - - - -MEMREL  
 - - - - - - -ONESOP  
 - - - - - - - -MEMREL  
 - - - - - - - -MEMREL  
 - - - - - - -ONESOP  
 - - - - - - - -MEMREL  
 - - - - - - - -MEMREL  
 - - - - - - -ONESOP  
 - - - - - - - -MEMREL  
 - - - - - - - -MEMREL  
 - - - - - - -ONESOP  
 - - - - - - - -MEMREL  
 - - - - - - - -MEMREL  
 - - - - - - -ONESOP  
 - - - - - - - -MEMREL  
 - - - - - - - -MEMREL  
 - - - - - - -ONESOP  
 - - - - - - - -MEMREL  
 - - - - - - - -MEMREL  
 - - - - - - -ONESOP  
 - - - - - - - -MEMREL  
 - - - - - - - -MEMREL  
 - - - - - - -ONESOP  
 - - - - - - - -MEMREL  
 - - - - - - - -MEMREL  
 - - - - - - -ONESOP  
 - - - - - - - -MEMREL  
 - - - - - - - -MEMREL  
 - - - - - - -ONESOP  
 - - - - - - - -MEMREL  
 - - - - - - - -MEMREL  
 - - - - - - -ONESOP  
 - - - - - - - -MEMREL  
 - - - - - - - -MEMREL  
 - - - - - - -ONESOP  
 - - - - - - - -MEMREL  
 - - - - - - - -MEMREL  
 - - - - - - -ONESOP  
 - - - - - - - -MEMREL  
 - - - - - - - -MEMREL  
 - - - - - - -ONESOP  
 - - - - - - - -MEMREL  
 - - - - - - - -MEMREL  
 - - - - - - -ONESOP  
 - - - - - - - -MEMREL  
 - - - - - - - -MEMREL  
 - - - - - - -ONESOP  
 - - - - - - - -MEMREL  
 - - - - - - - -MEMREL  
 - - - - - - -ONESOP  
 - - - - - - - -MEMREL  
 - - - - - - - -MEMREL  
 - - - - - - -ONESOP  
 - - - - - - - -MEMREL  
 - - - - - - - -MEMREL  
 - - - - - - -ONESOP  
 - - - - - - - -MEMREL  
 - - - - - - - -MEMREL  
 - - - - - - -ONESOP  
 - - - - - - - -MEMREL  
 - - - - - - - -MEMREL  
 - - - - - - -ONESOP  
 - - - - - - - -MEMREL  
 - - - - - - - -MEMREL  
 - - - - - - -ONESOP  
 - - - - - - - -MEMREL  
 - - - - - - - -MEMREL  
 - - - - - - -ONESOP  
 - - - - - - - -MEMREL  
 - - - - - - - -MEMREL  
 - - - - - - -ONESOP  
 - - - - - - - -MEMREL  
 - - - - - - - -MEMREL  
 - - - - - - -ONESOP  
 - - - - - - - -MEMREL  
 - - - - - - - -MEMREL  
 - - - - - - -ONESOP  
 - - - - - - - -MEMREL  
 - - - - - - - -MEMREL  
 - - - - - - -ONESOP  
 - - - - - - - -MEMREL  
 - - - - - - - -MEMREL  
 - - - - - - -ONESOP  
 - - - - - - - -MEMREL  
 - - - - - - - -MEMREL  
 - - - - - - -ONESOP  
 - - - - - - - -MEMREL  
 - - - - - - - -MEMREL  
 - - - - - - -ONESOP  
 - - - - - - - -MEMREL  
 - - - - - - - -MEMREL  
 - - - - - - -ONESOP  
 - - - - - - - -MEMREL  
 - - - - - - - -MEMREL  
 - - - - - - -ONESOP  
 - - - - - - - -MEMREL  
 - - - - - - - -MEMREL  
 - - - - - - -ONESOP  
 - - - - - - - -MEMREL  
 - - - - - - - -MEMREL  
 - - - - - - -ONESOP  
 - - - - - - - -MEMREL  
 - - - - - - - -MEMREL  
 - - - - - - -ONESOP  
 - - - - - - - -MEMREL  
 - - - - - - - -MEMREL  
 - - - - - - -ONESOP  
 - - - - - - - -MEMREL  
 - - - - - - - -MEMREL  
 - - - - - - -ONESOP  
 - - - - - - - -MEMREL  
 - - - - - - - -MEMREL  
 - - - - - - -ONESOP  
 - - - - - - - -MEMREL  
 - - - - - - - -MEMREL  
 - - - - - - -ONESOP  
 - - - - - - - -MEMREL  
 - - - - - - - -MEMREL  
 - - - - - -PR1INT  
 - - - - - - -PR1IN1  
 - - - - - - - -SETATM  
 - - - - - - - -PR1PRM  
 - - - - - - - - -MEMREL  
 - - - - - - - -PR1PRM  
 - - - - - - - - -MEMREL  
 - - - - - - - -PR1PRM  
 - - - - - - - - -MEMREL  
 - - - - - - - -PR1PRM  
 - - - - - - - - -MEMREL  
 - - - - - - - -PR1PRM  
 - - - - - - - - -MEMREL  
 - - - - - - - -PR1PRM  
 - - - - - - - - -MEMREL  
 - - - - - - - -PR1PRM  
 - - - - - - - - -MEMREL  
 - - - - - - - -PR1PRM  
 - - - - - - - - -MEMREL  
 - - - - - - - -PR1PRM  
 - - - - - - - - -MEMREL  
 - - - - - - - -PR1PRM  
 - - - - - - - - -MEMREL  
 - - - - - - - -PR1PRM  
 - - - - - - - - -MEMREL  
 - - - - - - - -PR1PRM  
 - - - - - - - - -MEMREL  
 - - - - - - - -PR1PRM  
 - - - - - - - - -MEMREL  
 - - - - - - - -PR1PRM  
 - - - - - - - - -MEMREL  
 - - - - - - - -PR1PRM  
 - - - - - - - - -MEMREL  
 - - - - - - - -PR1PRM  
 - - - - - - - - -MEMREL  
 - - - - - - - -PR1PRM  
 - - - - - - - - -MEMREL  
 - - - - - - - -PR1PRM  
 - - - - - - - - -MEMREL  
 - - - - - - - -PR1PRM  
 - - - - - - - - -MEMREL  
 - - - - - - - -PR1PRM  
 - - - - - - - - -MEMREL  
 - - - - - - - -PR1PRM  
 - - - - - - - - -MEMREL  
 - - - - - - - -PR1PRM  
 - - - - - - - - -MEMREL  
 - - - - - - - -PR1PRM  
 - - - - - - - - -MEMREL  
 - - - - - - - -PR1PRM  
 - - - - - - - - -MEMREL  
 - - - - - - - -PR1PRM  
 - - - - - - - - -MEMREL  
 - - - - - - - -PR1PRM  
 - - - - - - - - -MEMREL  
 - - - - - - - -PR1PRM  
 - - - - - - - - -MEMREL  
 - - - - - - - -PR1PRM  
 - - - - - - - - -MEMREL  
 - - - - - - - -PR1PRM  
 - - - - - - - - -MEMREL  
 - - - - - - - -PR1PRM  
 - - - - - - - - -MEMREL  
 - - - - - - - -PR1PRM  
 - - - - - - - - -MEMREL  
 - - - - - - - -PR1PRM  
 - - - - - - - - -MEMREL  
 - - - - - - - -PR1PRM  
 - - - - - - - - -MEMREL  
 - - - - - - - -PR1PRM  
 - - - - - - - - -MEMREL  
 - - - - - - - -PR1PRM  
 - - - - - - - - -MEMREL  
 - - - - - - - -PR1PRM  
 - - - - - - - - -MEMREL  
 - - - - - - - -PR1PRM  
 - - - - - - - - -MEMREL  
 - - - - - - - -PR1PRM  
 - - - - - - - - -MEMREL  
 - - - - - - - -PR1PRM  
 - - - - - - - - -MEMREL  
 - - - - - - - -PR1PRM  
 - - - - - - - - -MEMREL  
 - - - - - - - -PR1PRM  
 - - - - - - - - -MEMREL  
 - - - - - - - -PR1PRM  
 - - - - - - - - -MEMREL  
 - - - - - - - -PR1PRM  
 - - - - - - - - -MEMREL  
 - - - - - - - -PR1PRM  
 - - - - - - - - -MEMREL  
 - - - - - - - -PR1PRM  
 - - - - - - - - -MEMREL  
 - - - - - - - -PR1PRM  
 - - - - - - - - -MEMREL  
 - - - - - - - -PR1PRM  
 - - - - - - - - -MEMREL  
 - - - - - - - -PR1PRM  
 - - - - - - - - -MEMREL  
 - - - - - - - -PR1PRM  
 - - - - - - - - -MEMREL  
 - - - - - - - -PR1PRM  
 - - - - - - - - -MEMREL  
 - - - - - - - -PR1PRM  
 - - - - - - - - -MEMREL  
 - - - - - - - -PR1PRM  
 - - - - - - - - -MEMREL  
 - - - - - - - -PR1PRM  
 - - - - - - - - -MEMREL  
 - - - - - - - -PR1PRM  
 - - - - - - - - -MEMREL  
 - - - - - - - -PR1PRM  
 - - - - - - - - -MEMREL  
 - - - - - - - -PR1PRM  
 - - - - - - - - -MEMREL  
 - - - - - - - -PR1PRM  
 - - - - - - - - -MEMREL  
 - - - - - - - -PR1PRM  
 - - - - - - - - -MEMREL  
 - - - - - - - -PR1PRM  
 - - - - - - - - -MEMREL  
 - - - - - - - -PR1PRM  
 - - - - - - - - -MEMREL  
 - - - - - - - -PR1PRM  
 - - - - - - - - -MEMREL  
 - - - - - - - -PR1PRM  
 - - - - - - - - -MEMREL  
 - - - - - - - -PR1PRM  
 - - - - - - - - -MEMREL  
 - - - - - - - -PR1PRM  
 - - - - - - - - -MEMREL  
 - - - - - - - -PR1PRM  
 - - - - - - - - -MEMREL  
 - - - - - - - -PR1PRM  
 - - - - - - - - -MEMREL  
 - - - - - - - -PR1PRM  
 - - - - - - - - -MEMREL  
 - - - - - - - -PR1PRM  
 - - - - - - - - -MEMREL  
 - - - - - - - -PR1PRM  
 - - - - - - - - -MEMREL  
 - - - - - - - -PR1PRM  
 - - - - - - - - -MEMREL  
 - - - - - - - -PR1PRM  
 - - - - - - - - -MEMREL  
 - - - - - - - -PR1PRM  
 - - - - - - - - -MEMREL  
 - - - - - - - -PR1PRM  
 - - - - - - - - -MEMREL  
 - - - - - - - -PR1PRM  
 - - - - - - - - -MEMREL  
 - - - - - - - -PR1PRM  
 - - - - - - - - -MEMREL  
 - - - - - - - -PR1PRM  
 - - - - - - - - -MEMREL  
 - - - - - - - -PR1PRM  
 - - - - - - - - -MEMREL  
 - - - - - - - -PR1PRM  
 - - - - - - - - -MEMREL  
 - - - - - - - -PR1PRM  
 - - - - - - - - -MEMREL  
 - - - - - - - -PR1PRM  
 - - - - - - - - -MEMREL  
 - - - - - - - -PR1PRM  
 - - - - - - - - -MEMREL  
 - - - - - - - -PR1PRM  
 - - - - - - - - -MEMREL  
 - - - - - - - -PR1PRM  
 - - - - - - - - -MEMREL  
 - - - - - - - -PR1PRM  
 - - - - - - - - -MEMREL  
 - - - - - - - -PR1PRM  
 - - - - - - - - -MEMREL  
 - - - - - - - -PR1PRM  
 - - - - - - - - -MEMREL  
 - - - - - - - -PR1PRM  
 - - - - - - - - -MEMREL  
 - - - - - - - -PR1PRM  
 - - - - - - - - -MEMREL  
 - - - - - - - -PR1PRM  
 - - - - - - - - -MEMREL  
 - - - - - - - -PR1PRM  
 - - - - - - - - -MEMREL  
 - - - - - - - -PR1PRM  
 - - - - - - - - -MEMREL  
 - - - - - - - -PR1PRM  
 - - - - - - - - -MEMREL  
 - - - - - - - -PR1PRM  
 - - - - - - - - -MEMREL  
 - - - - - - - -PR1PRM  
 - - - - - - - - -MEMREL  
 - - - - - - - -PR1PRM  
 - - - - - - - - -MEMREL  
 - - - - - - - -PR1PRM  
 - - - - - - - - -MEMREL  
 - - - - - - - -PR1PRM  
 - - - - - - - - -MEMREL  
 - - - - - - - -PR1PRM  
 - - - - - - - - -MEMREL  
 - - - - - - - -PR1PRM  
 - - - - - - - - -MEMREL  
 - - - - - - - -PR1PRM  
 - - - - - - - - -MEMREL  
 - - - - - - - -PR1PRM  
 - - - - - - - - -MEMREL  
 - - - - - - - -PR1PRM  
 - - - - - - - - -MEMREL  
 - - - - - - - -PR1PRM  
 - - - - - - - - -MEMREL  
 - - - - - - - -PR1PRM  
 - - - - - - - - -MEMREL  
 - - - - - - - -PR1PRM  
 - - - - - - - - -MEMREL  
 - - - - - - - -PR1PRM  
 - - - - - - - - -MEMREL  
 - - - - - - - -PR1PRM  
 - - - - - - - - -MEMREL  
 - - - - - - - -PR1PRM  
 - - - - - - - - -MEMREL  
 - - - - - - - -PR1PRM  
 - - - - - - - - -MEMREL  
 - - - - - - - -PR1PRM  
 - - - - - - - - -MEMREL  
 - - - - - - - -PR1PRM  
 - - - - - - - - -MEMREL  
 - - - - - - - -PR1PRM  
 - - - - - - - - -MEMREL  
 - - - - - - - -PR1PRM  
 - - - - - - - - -MEMREL  
 - - - - - - - -PR1PRM  
 - - - - - - - - -MEMREL  
 - - - - - - - -PR1PRM  
 - - - - - - - - -MEMREL  
 - - - - - - - -PR1PRM  
 - - - - - - - - -MEMREL  
 - - - - - - - -PR1PRM  
 - - - - - - - - -MEMREL  
 - - - - - - - -PR1PRM  
 - - - - - - - - -MEMREL  
 - - - - - - - -PR1PRM  
 - - - - - - - - -MEMREL  
 - - - - - - - -PR1PRM  
 - - - - - - - - -MEMREL  
 - - - - - - - -PR1PRM  
 - - - - - - - - -MEMREL  
 - - - - - - - -PR1PRM  
 - - - - - - - - -MEMREL  
 - - - - - - - -PR1PRM  
 - - - - - - - - -MEMREL  
 - - - - - - - -PR1PRM  
 - - - - - - - - -MEMREL  
 - - - - - - - -PR1PRM  
 - - - - - - - - -MEMREL  
 - - - - - - - -PR1PRM  
 - - - - - - - - -MEMREL  
 - - - - - - - -PR1PRM  
 - - - - - - - - -MEMREL  
 - - - - - - - -PR1PRM  
 - - - - - - - - -MEMREL  
 - - - - - - - -PR1PRM  
 - - - - - - - - -MEMREL  
 - - - - - - - -PR1PRM  
 - - - - - - - - -MEMREL  
 - - - - - - - -PR1PRM  
 - - - - - - - - -MEMREL  
 - - - - - - - -PR1PRM  
 - - - - - - - - -MEMREL  
 - - - - - - - -PR1PRM  
 - - - - - - - - -MEMREL  
 - - - - - - - -PR1PRM  
 - - - - - - - - -MEMREL  
 - - - - - - - -PR1PRM  
 - - - - - - - - -MEMREL  
 - - - - - - - -PR1PRM  
 - - - - - - - - -MEMREL  
 - - - - - - - -PR1PRM  
 - - - - - - - - -MEMREL  
 - - - - - - - -PR1PRM  
 - - - - - - - - -MEMREL  
 - - - - - - - -PR1PRM  
 - - - - - - - - -MEMREL  
 - - - - - - - -PR1PRM  
 - - - - - - - - -MEMREL  
 - - - - - - - -PR1PRM  
 - - - - - - - - -MEMREL  
 - - - - - - - -PR1PRM  
 - - - - - - - - -MEMREL  
 - - - - - - - -PR1PRM  
 - - - - - - - - -MEMREL  
 - - - - - - - -PR1PRM  
 - - - - - - - - -MEMREL  
 - - - - - - - -PR1PRM  
 - - - - - - - - -MEMREL  
 - - - - - - - -PR1PRM  
 - - - - - - - - -MEMREL  
 - - - - - - - -PR1PRM  
 - - - - - - - - -MEMREL  
 - - - - - - - -PR1PRM  
 - - - - - - - - -MEMREL  
 - - - - - - - -PR1PRM  
 - - - - - - - - -MEMREL  
 - - - - - - - -PR1PRM  
 - - - - - - - - -MEMREL  
 - - - - - - - -PR1PRM  
 - - - - - - - - -MEMREL  
 - - - - - - - -PR1PRM  
 - - - - - - - - -MEMREL  
 - - - - - - - -PR1PRM  
 - - - - - - - - -MEMREL  
 - - - - - - - -PR1PRM  
 - - - - - - - - -MEMREL  
 - - - - - - - -PR1PRM  
 - - - - - - - - -MEMREL  
 - - - - - - - -PR1PRM  
 - - - - - - - - -MEMREL  
 - - - - - - - -PR1PRM  
 - - - - - - - - -MEMREL  
 - - - - - - - -PR1PRM  
 - - - - - - - - -MEMREL  
 - - - - - - - -PR1PRM  
 - - - - - - - - -MEMREL  
 - - - - - - - -PR1PRM  
 - - - - - - - - -MEMREL  
 - - - - - - - -PR1PRM  
 - - - - - - - - -MEMREL  
 - - - - - - - -PR1PRM  
 - - - - - - - - -MEMREL  
 - - - - - - - -PR1PRM  
 - - - - - - - - -MEMREL  
 - - - - - - - -PR1PRM  
 - - - - - - - - -MEMREL  
 - - - - - - - -PR1PRM  
 - - - - - - - - -MEMREL  
 - - - - - - - -PR1PRM  
 - - - - - - - - -MEMREL  
 - - - - - - - -PR1PRM  
 - - - - - - - - -MEMREL  
 - - - - - - - -PR1PRM  
 - - - - - - - - -MEMREL  
 - - - - - - - -PR1PRM  
 - - - - - - - - -MEMREL  
 - - - - - - - -PR1PRM  
 - - - - - - - - -MEMREL  
 - - - - - - - -PR1PRM  
 - - - - - - - - -MEMREL  
 - - - - - - - -PR1PRM  
 - - - - - - - - -MEMREL  
 - - - - - - - -PR1PRM  
 - - - - - - - - -MEMREL  
 - - - - - - - -PR1PRM  
 - - - - - - - - -MEMREL  
 - - - - - - - -PR1PRM  
 - - - - - - - - -MEMREL  
 - - - - - - - -PR1PRM  
 - - - - - - - - -MEMREL  
 - - - - - - - -PR1PRM  
 - - - - - - - - -MEMREL  
 - - - - - - - -PR1PRM  
 - - - - - - - - -MEMREL  
 - - - - - - - -PR1PRM  
 - - - - - - - - -MEMREL  
 - - - - - - - -PR1PRM  
 - - - - - - - - -MEMREL  
 - - - - - - - -PR1PRM  
 - - - - - - - - -MEMREL  
 - - - - - - - -PR1PRM  
 - - - - - - - - -MEMREL  
 - - - - - - - -PR1PRM  
 - - - - - - - - -MEMREL  
 - - - - - - - -PR1PRM  
 - - - - - - - - -MEMREL  
 - - - - - - - -PR1PRM  
 - - - - - - - - -MEMREL  
 - - - - - - - -PR1PRM  
 - - - - - - - - -MEMREL  
 - - - - - - - -PR1PRM  
 - - - - - - - - -MEMREL  
 - - - - - - - -PR1PRM  
 - - - - - - - - -MEMREL  
 - - - - - - - -PR1PRM  
 - - - - - - - - -MEMREL  
 - - - - - - - -PR1PRM  
 - - - - - - - - -MEMREL  
 - - - - - - - -PR1PRM  
 - - - - - - - - -MEMREL  
 - - - - - - - -PR1PRM  
 - - - - - - - - -MEMREL  
 - - - - - - - -PR1PRM  
 - - - - - - - - -MEMREL  
 - - - - - - - -PR1PRM  
 - - - - - - - - -MEMREL  
 - - - - - - - -PR1PRM  
 - - - - - - - - -MEMREL  
 - - - - - - - -PR1PRM  
 - - - - - - - - -MEMREL  
 - - - - - - - -PR1PRM  
 - - - - - - - - -MEMREL  
 - - - - - - - -PR1PRM  
 - - - - - - - - -MEMREL  
 - - - - - - - -PR1PRM  
 - - - - - - - - -MEMREL  
 - - - - - - - -PR1PRM  
 - - - - - - - - -MEMREL  
 - - - - - - - -PR1PRM  
 - - - - - - - - -MEMREL  
 - - - - - - - -PR1PRM  
 - - - - - - - - -MEMREL  
 - - - - - - - -PR1PRM  
 - - - - - - - - -MEMREL  
 - - - - - - - -PR1PRM  
 - - - - - - - - -MEMREL  
 - - - - - - - -PR1PRM  
 - - - - - - - - -MEMREL  
 - - - - - - - -PR1PRM  
 - - - - - - - - -MEMREL  
 - - - - - - - -PR1PRM  
 - - - - - - - - -MEMREL  
 - - - - - - - -PR1PRM  
 - - - - - - - - -MEMREL  
 - - - - - - - -PR1PRM  
 - - - - - - - - -MEMREL  
 - - - - - - - -PR1PRM  
 - - - - - - - - -MEMREL  
 - - - - - - - -PR1PRM  
 - - - - - - - - -MEMREL  
 - - - - - - - -PR1PRM  
 - - - - - - - - -MEMREL  
 - - - - - - - -PR1PRM  
 - - - - - - - - -MEMREL  
 - - - - - - - -PR1PRM  
 - - - - - - - - -MEMREL  
 - - - - - - - -PR1PRM  
 - - - - - - - - -MEMREL  
 - - - - - - - -PR1PRM  
 - - - - - - - - -MEMREL  
 - - - - - - - -PR1PRM  
 - - - - - - - - -MEMREL  
 - - - - - - - -PR1PRM  
 - - - - - - - - -MEMREL  
 - - - - - - - -PR1PRM  
 - - - - - - - - -MEMREL  
 - - - - - - - -PR1PRM  
 - - - - - - - - -MEMREL  
 - - - - - - - -PR1PRM  
 - - - - - - - - -MEMREL  
 - - - - - - - -PR1PRM  
 - - - - - - - - -MEMREL  
 - - - - - - - -PR1PRM  
 - - - - - - - - -MEMREL  
 - - - - - - - -PR1PRM  
 - - - - - - - - -MEMREL  
 - - - - - - - -PR1PRM  
 - - - - - - - - -MEMREL  
 - - - - - - - -PR1PRM  
 - - - - - - - - -MEMREL  
 - - - - - - - -PR1PRM  
 - - - - - - - - -MEMREL  
 - - - - - - - -PR1PRM  
 - - - - - - - - -MEMREL  
 - - - - - - - -PR1PRM  
 - - - - - - - - -MEMREL  
 - - - - - - - -PR1PRM  
 - - - - - - - - -MEMREL  
 - - - - - - - -PR1PRM  
 - - - - - - - - -MEMREL  
 - - - - - - - -PR1PRM  
 - - - - - - - - -MEMREL  
 - - - - - - - -PR1PRM  
 - - - - - - - - -MEMREL  
 - - - - - - - -PR1PRM  
 - - - - - - - - -MEMREL  
 - - - - - - - -PR1PRM  
 - - - - - - - - -MEMREL  
 - - - - - - - -PR1PRM  
 - - - - - - - - -MEMREL  
 - - - - - - - -PR1PRM  
 - - - - - - - - -MEMREL  
 - - - - - - - -PR1PRM  
 - - - - - - - - -MEMREL  
 - - - - - - - -PR1PRM  
 - - - - - - - - -MEMREL  
 - - - - - - - -PR1PRM  
 - - - - - - - - -MEMREL  
 - - - - - - - -PR1PRM  
 - - - - - - - - -MEMREL  
 - - - - - - - -PR1PRM  
 - - - - - - - - -MEMREL  
 - - - - - - - -PR1PRM  
 - - - - - - - - -MEMREL  
 - - - - - - - -PR1PRM  
 - - - - - - - - -MEMREL  
 - - - - - - - -PR1PRM  
 - - - - - - - - -MEMREL  
 - - - - - - - -PR1PRM  
 - - - - - - - - -MEMREL  
 - - - - - - - -PR1PRM  
 - - - - - - - - -MEMREL  
 - - - - - - - -PR1PRM  
 - - - - - - - - -MEMREL  
 - - - - - - - -PR1PRM  
 - - - - - - - - -MEMREL  
 - - - - - - - -PR1PRM  
 - - - - - - - - -MEMREL  
 - - - - - - - -PR1PRM  
 - - - - - - - - -MEMREL  
 - - - - - - - -PR1PRM  
 - - - - - - - - -MEMREL  
 - - - - - - - -PR1PRM  
 - - - - - - - - -MEMREL  
 - - - - - - - -PR1PRM  
 - - - - - - - - -MEMREL  
 - - - - - - - -PR1PRM  
 - - - - - - - - -MEMREL  
 - - - - - - - -PR1PRM  
 - - - - - - - - -MEMREL  
 - - - - - - - -PR1PRM  
 - - - - - - - - -MEMREL  
 - - - - - - - -PR1PRM  
 - - - - - - - - -MEMREL  
 - - - - - - - -PR1PRM  
 - - - - - - - - -MEMREL  
 - - - - - - - -PR1PRM  
 - - - - - - - - -MEMREL  
 - - - - - - - -PR1PRM  
 - - - - - - - - -MEMREL  
 - - - - - - - -PR1PRM  
 - - - - - - - - -MEMREL  
 - - - - - - - -PR1PRM  
 - - - - - - - - -MEMREL  
 - - - - - - - -PR1PRM  
 - - - - - - - - -MEMREL  
 - - - - - - - -PR1PRM  
 - - - - - - - - -MEMREL  
 - - - - - - - -PR1PRM  
 - - - - - - - - -MEMREL  
 - - - - - - - -PR1PRM  
 - - - - - - - - -MEMREL  
 - - - - - - - -PR1PRM  
 - - - - - - - - -MEMREL  
 - - - - - - - -PR1PRM  
 - - - - - - - - -MEMREL  
 - - - - - - - -PR1PRM  
 - - - - - - - - -MEMREL  
 - - - - - - - -PR1PRM  
 - - - - - - - - -MEMREL  
 - - - - - - - -PR1PRM  
 - - - - - - - - -MEMREL  
 - - - - - - - -PR1PRM  
 - - - - - - - - -MEMREL  
 - - - - - - - -PR1PRM  
 - - - - - - - - -MEMREL  
 - - - - - - - -PR1PRM  
 - - - - - - - - -MEMREL  
 - - - - - - - -PR1PRM  
 - - - - - - - - -MEMREL  
 - - - - - - - -PR1PRM  
 - - - - - - - - -MEMREL  
 - - - - - - - -PR1PRM  
 - - - - - - - - -MEMREL  
 - - - - - - - -PR1PRM  
 - - - - - - - - -MEMREL  
 - - - - - - - -PR1PRM  
 - - - - - - - - -MEMREL  
 - - - - - - - -PR1PRM  
 - - - - - - - - -MEMREL  
 - - - - - - - -PR1PRM  
 - - - - - - - - -MEMREL  
 - - - - - - - -PR1PRM  
 - - - - - - - - -MEMREL  
 - - - - - - - -PR1PRM  
 - - - - - - - - -MEMREL  
 - - - - - - - -PR1PRM  
 - - - - - - - - -MEMREL  
 - - - - - - - -PR1PRM  
 - - - - - - - - -MEMREL  
 - - - - - - - -PR1PRM  
 - - - - - - - - -MEMREL  
 - - - - - - - -PR1PRM  
 - - - - - - - - -MEMREL  
 - - - - - - - -PR1PRM  
 - - - - - - - - -MEMREL  
 - - - - - - - -PR1PRM  
 - - - - - - - - -MEMREL  
 - - - - - - - -PR1PRM  
 - - - - - - - - -MEMREL  
 - - - - - - - -PR1PRM  
 - - - - - - - - -MEMREL  
 - - - - - - - -PR1PRM  
 - - - - - - - - -MEMREL  
 - - - - - - - -PR1PRM  
 - - - - - - - - -MEMREL  
 - - - - - - - -PR1PRM  
 - - - - - - - - -MEMREL  
 - - - - - - - -PR1PRM  
 - - - - - - - - -MEMREL  
 - - - - - - - -PR1PRM  
 - - - - - - - - -MEMREL  
 - - - - - - - -PR1PRM  
 - - - - - - - - -MEMREL  
 - - - - - - - -PR1PRM  
 - - - - - - - - -MEMREL  
 - - - - - - - -PR1PRM  
 - - - - - - - - -MEMREL  
 - - - - - - - -PR1PRM  
 - - - - - - - - -MEMREL  
 - - - - - - - -PR1PRM  
 - - - - - - - - -MEMREL  
 - - - - - - - -PR1PRM  
 - - - - - - - - -MEMREL  
 - - - - - - - -PR1PRM  
 - - - - - - - - -MEMREL  
 - - - - - - - -PR1PRM  
 - - - - - - - - -MEMREL  
 - - - - - - - -PR1PRM  
 - - - - - - - - -MEMREL  
 - - - - - - - -PR1PRM  
 - - - - - - - - -MEMREL  
 - - - - - - - -PR1PRM  
 - - - - - - - - -MEMREL  
 - - - - - - - -PR1PRM  
 - - - - - - - - -MEMREL  
 - - - - - - - -PR1PRM  
 - - - - - - - - -MEMREL  
 - - - - - - - -PR1PRM  
 - - - - - - - - -MEMREL  
 - - - - - - - -PR1PRM  
 - - - - - - - - -MEMREL  
 - - - - - - - -PR1PRM  
 - - - - - - - - -MEMREL  
 - - - - - - - -PR1PRM  
 - - - - - - - - -MEMREL  
 - - - - - - - -PR1PRM  
 - - - - - - - - -MEMREL  
 - - - - - - - -PR1PRM  
 - - - - - - - - -MEMREL  
 - - - - - - - -PR1PRM  
 - - - - - - - - -MEMREL  
 - - - - - - - -PR1PRM  
 - - - - - - - - -MEMREL  
 - - - - - - - -PR1PRM  
 - - - - - - - - -MEMREL  
 - - - - - - - -PR1PRM  
 - - - - - - - - -MEMREL  
 - - - - - - - -PR1PRM  
 - - - - - - - - -MEMREL  
 - - - - - - - -PR1PRM  
 - - - - - - - - -MEMREL  
 - - - - - - - -PR1PRM  
 - - - - - - - - -MEMREL  
 - - - - - - - -PR1PRM  
 - - - - - - - - -MEMREL  
 - - - - - - - -PR1PRM  
 - - - - - - - - -MEMREL  
 - - - - - - - -PR1PRM  
 - - - - - - - - -MEMREL  
 - - - - - - - -PR1PRM  
 - - - - - - - - -MEMREL  
 - - - - - - - -PR1PRM  
 - - - - - - - - -MEMREL  
 - - - - - - - -PR1PRM  
 - - - - - - - - -MEMREL  
 - - - - - - - -PR1PRM  
 - - - - - - - - -MEMREL  
 - - - - - - - -PR1PRM  
 - - - - - - - - -MEMREL  
 - - - - - - - -PR1PRM  
 - - - - - - - - -MEMREL  
 - - - - - - - -PR1PRM  
 - - - - - - - - -MEMREL  
 - - - - - - - -PR1PRM  
 - - - - - - - - -MEMREL  
 - - - - - - - -PR1PRM  
 - - - - - - - - -MEMREL  
 - - - - - - - -PR1PRM  
 - - - - - - - - -MEMREL  
 - - - - - - - -PR1PRM  
 - - - - - - - - -MEMREL  
 - - - - - - - -PR1PRM  
 - - - - - - - - -MEMREL  
 - - - - - - - -PR1PRM  
 - - - - - - - - -MEMREL  
 - - - - - - - -PR1PRM  
 - - - - - - - - -MEMREL  
 - - - - - - - -PR1PRM  
 - - - - - - - - -MEMREL  
 - - - - - - - -PR1PRM  
 - - - - - - - - -MEMREL  
 - - - - - - - -PR1PRM  
 - - - - - - - - -MEMREL  
 - - - - - - - -PR1PRM  
 - - - - - - - - -MEMREL  
 - - - - - - - -PR1PRM  
 - - - - - - - - -MEMREL  
 - - - - - - - -PR1PRM  
 - - - - - - - - -MEMREL  
 - - - - - - - -PR1PRM  
 - - - - - - - - -MEMREL  
 - - - - - - - -PR1PRM  
 - - - - - - - - -MEMREL  
 - - - - - - - -PR1PRM  
 - - - - - - - - -MEMREL  
 - - - - - - - -PR1PRM  
 - - - - - - - - -MEMREL  
 - - - - - - - -PR1PRM  
 - - - - - - - - -MEMREL  
 - - - - - - - -PR1PRM  
 - - - - - - - - -MEMREL  
 - - - - - - - -PR1PRM  
 - - - - - - - - -MEMREL  
 - - - - - - - -PR1PRM  
 - - - - - - - - -MEMREL  
 - - - - - - - -PR1PRM  
 - - - - - - - - -MEMREL  
 - - - - - - - -PR1PRM  
 - - - - - - - - -MEMREL  
 - - - - - - - -PR1PRM  
 - - - - - - - - -MEMREL  
 - - - - - - - -PR1PRM  
 - - - - - - - - -MEMREL  
 - - - - - - - -PR1PRM  
 - - - - - - - - -MEMREL  
 - - - - - - - -PR1PRM  
 - - - - - - - - -MEMREL  
 - - - - - - - -PR1PRM  
 - - - - - - - - -MEMREL  
 - - - - - - - -PR1PRM  
 - - - - - - - - -MEMREL  
 - - - - - - - -PR1PRM  
 - - - - - - - - -MEMREL  
 - - - - - - - -PR1PRM  
 - - - - - - - - -MEMREL  
 - - - - - - - -PR1PRM  
 - - - - - - - - -MEMREL  
 - - - - - - - -PR1PRM  
 - - - - - - - - -MEMREL  
 - - - - - - - -PR1PRM  
 - - - - - - - - -MEMREL  
 - - - - - - - -PR1PRM  
 - - - - - - - - -MEMREL  
 - - - - - - - -PR1PRM  
 - - - - - - - - -MEMREL  
 - - - - - - - -PR1PRM  
 - - - - - - - - -MEMREL  
 - - - - - - - -PR1PRM  
 - - - - - - - - -MEMREL  
 - - - - - - - -PR1PRM  
 - - - - - - - - -MEMREL  
 - - - - - - - -PR1PRM  
 - - - - - - - - -MEMREL  
 - - - - - - - -PR1PRM  
 - - - - - - - - -MEMREL  
 - - - - - - - -PR1PRM  
 - - - - - - - - -MEMREL  
 - - - - - - - -PR1PRM  
 - - - - - - - - -MEMREL  
 - - - - - - - -PR1PRM  
 - - - - - - - - -MEMREL  
 - - - - - - - -PR1PRM  
 - - - - - - - - -MEMREL  
 - - - - - - - -MEMREL  
 - - - - - - -MEMREL  
 - - - - - -PR1INT  
 - - - - - - -PR1IN1  
 - - - - - - - -SETATM  
 - - - - - - - -PR1PRM  
 - - - - - - - - -MEMREL  
 - - - - - - - -PR1PRM  
 - - - - - - - - -MEMREL  
 - - - - - - - -PR1PRM  
 - - - - - - - - -MEMREL  
 - - - - - - - -PR1PRM  
 - - - - - - - - -MEMREL  
 - - - - - - - -PR1PRM  
 - - - - - - - - -MEMREL  
 - - - - - - - -PR1PRM  
 - - - - - - - - -MEMREL  
 - - - - - - - -PR1PRM  
 - - - - - - - - -MEMREL  
 - - - - - - - -PR1PRM  
 - - - - - - - - -MEMREL  
 - - - - - - - -PR1PRM  
 - - - - - - - - -MEMREL  
 - - - - - - - -PR1PRM  
 - - - - - - - - -MEMREL  
 - - - - - - - -PR1PRM  
 - - - - - - - - -MEMREL  
 - - - - - - - -PR1PRM  
 - - - - - - - - -MEMREL  
 - - - - - - - -PR1PRM  
 - - - - - - - - -MEMREL  
 - - - - - - - -PR1PRM  
 - - - - - - - - -MEMREL  
 - - - - - - - -PR1PRM  
 - - - - - - - - -MEMREL  
 - - - - - - - -PR1PRM  
 - - - - - - - - -MEMREL  
 - - - - - - - -PR1PRM  
 - - - - - - - - -MEMREL  
 - - - - - - - -PR1PRM  
 - - - - - - - - -MEMREL  
 - - - - - - - -PR1PRM  
 - - - - - - - - -MEMREL  
 - - - - - - - -PR1PRM  
 - - - - - - - - -MEMREL  
 - - - - - - - -PR1PRM  
 - - - - - - - - -MEMREL  
 - - - - - - - -PR1PRM  
 - - - - - - - - -MEMREL  
 - - - - - - - -PR1PRM  
 - - - - - - - - -MEMREL  
 - - - - - - - -PR1PRM  
 - - - - - - - - -MEMREL  
 - - - - - - - -PR1PRM  
 - - - - - - - - -MEMREL  
 - - - - - - - -PR1PRM  
 - - - - - - - - -MEMREL  
 - - - - - - - -PR1PRM  
 - - - - - - - - -MEMREL  
 - - - - - - - -PR1PRM  
 - - - - - - - - -MEMREL  
 - - - - - - - -PR1PRM  
 - - - - - - - - -MEMREL  
 - - - - - - - -PR1PRM  
 - - - - - - - - -MEMREL  
 - - - - - - - -PR1PRM  
 - - - - - - - - -MEMREL  
 - - - - - - - -PR1PRM  
 - - - - - - - - -MEMREL  
 - - - - - - - -PR1PRM  
 - - - - - - - - -MEMREL  
 - - - - - - - -PR1PRM  
 - - - - - - - - -MEMREL  
 - - - - - - - -PR1PRM  
 - - - - - - - - -MEMREL  
 - - - - - - - -PR1PRM  
 - - - - - - - - -MEMREL  
 - - - - - - - -PR1PRM  
 - - - - - - - - -MEMREL  
 - - - - - - - -PR1PRM  
 - - - - - - - - -MEMREL  
 - - - - - - - -PR1PRM  
 - - - - - - - - -MEMREL  
 - - - - - - - -PR1PRM  
 - - - - - - - - -MEMREL  
 - - - - - - - -PR1PRM  
 - - - - - - - - -MEMREL  
 - - - - - - - -PR1PRM  
 - - - - - - - - -MEMREL  
 - - - - - - - -PR1PRM  
 - - - - - - - - -MEMREL  
 - - - - - - - -PR1PRM  
 - - - - - - - - -MEMREL  
 - - - - - - - -PR1PRM  
 - - - - - - - - -MEMREL  
 - - - - - - - -PR1PRM  
 - - - - - - - - -MEMREL  
 - - - - - - - -PR1PRM  
 - - - - - - - - -MEMREL  
 - - - - - - - -PR1PRM  
 - - - - - - - - -MEMREL  
 - - - - - - - -PR1PRM  
 - - - - - - - - -MEMREL  
 - - - - - - - -PR1PRM  
 - - - - - - - - -MEMREL  
 - - - - - - - -PR1PRM  
 - - - - - - - - -MEMREL  
 - - - - - - - -PR1PRM  
 - - - - - - - - -MEMREL  
 - - - - - - - -PR1PRM  
 - - - - - - - - -MEMREL  
 - - - - - - - -PR1PRM  
 - - - - - - - - -MEMREL  
 - - - - - - - -PR1PRM  
 - - - - - - - - -MEMREL  
 - - - - - - - -PR1PRM  
 - - - - - - - - -MEMREL  
 - - - - - - - -PR1PRM  
 - - - - - - - - -MEMREL  
 - - - - - - - -PR1PRM  
 - - - - - - - - -MEMREL  
 - - - - - - - -PR1PRM  
 - - - - - - - - -MEMREL  
 - - - - - - - -PR1PRM  
 - - - - - - - - -MEMREL  
 - - - - - - - -PR1PRM  
 - - - - - - - - -MEMREL  
 - - - - - - - -PR1PRM  
 - - - - - - - - -MEMREL  
 - - - - - - - -PR1PRM  
 - - - - - - - - -MEMREL  
 - - - - - - - -PR1PRM  
 - - - - - - - - -MEMREL  
 - - - - - - - -PR1PRM  
 - - - - - - - - -MEMREL  
 - - - - - - - -PR1PRM  
 - - - - - - - - -MEMREL  
 - - - - - - - -PR1PRM  
 - - - - - - - - -MEMREL  
 - - - - - - - -PR1PRM  
 - - - - - - - - -MEMREL  
 - - - - - - - -PR1PRM  
 - - - - - - - - -MEMREL  
 - - - - - - - -PR1PRM  
 - - - - - - - - -MEMREL  
 - - - - - - - -PR1PRM  
 - - - - - - - - -MEMREL  
 - - - - - - - -PR1PRM  
 - - - - - - - - -MEMREL  
 - - - - - - - -PR1PRM  
 - - - - - - - - -MEMREL  
 - - - - - - - -PR1PRM  
 - - - - - - - - -MEMREL  
 - - - - - - - -PR1PRM  
 - - - - - - - - -MEMREL  
 - - - - - - - -PR1PRM  
 - - - - - - - - -MEMREL  
 - - - - - - - -PR1PRM  
 - - - - - - - - -MEMREL  
 - - - - - - - -PR1PRM  
 - - - - - - - - -MEMREL  
 - - - - - - - -PR1PRM  
 - - - - - - - - -MEMREL  
 - - - - - - - -PR1PRM  
 - - - - - - - - -MEMREL  
 - - - - - - - -PR1PRM  
 - - - - - - - - -MEMREL  
 - - - - - - - -PR1PRM  
 - - - - - - - - -MEMREL  
 - - - - - - - -PR1PRM  
 - - - - - - - - -MEMREL  
 - - - - - - - -PR1PRM  
 - - - - - - - - -MEMREL  
 - - - - - - - -PR1PRM  
 - - - - - - - - -MEMREL  
 - - - - - - - -PR1PRM  
 - - - - - - - - -MEMREL  
 - - - - - - - -PR1PRM  
 - - - - - - - - -MEMREL  
 - - - - - - - -PR1PRM  
 - - - - - - - - -MEMREL  
 - - - - - - - -PR1PRM  
 - - - - - - - - -MEMREL  
 - - - - - - - -PR1PRM  
 - - - - - - - - -MEMREL  
 - - - - - - - -PR1PRM  
 - - - - - - - - -MEMREL  
 - - - - - - - -PR1PRM  
 - - - - - - - - -MEMREL  
 - - - - - - - -PR1PRM  
 - - - - - - - - -MEMREL  
 - - - - - - - -PR1PRM  
 - - - - - - - - -MEMREL  
 - - - - - - - -PR1PRM  
 - - - - - - - - -MEMREL  
 - - - - - - - -PR1PRM  
 - - - - - - - - -MEMREL  
 - - - - - - - -PR1PRM  
 - - - - - - - - -MEMREL  
 - - - - - - - -PR1PRM  
 - - - - - - - - -MEMREL  
 - - - - - - - -PR1PRM  
 - - - - - - - - -MEMREL  
 - - - - - - - -PR1PRM  
 - - - - - - - - -MEMREL  
 - - - - - - - -PR1PRM  
 - - - - - - - - -MEMREL  
 - - - - - - - -PR1PRM  
 - - - - - - - - -MEMREL  
 - - - - - - - -PR1PRM  
 - - - - - - - - -MEMREL  
 - - - - - - - -PR1PRM  
 - - - - - - - - -MEMREL  
 - - - - - - - -PR1PRM  
 - - - - - - - - -MEMREL  
 - - - - - - - -PR1PRM  
 - - - - - - - - -MEMREL  
 - - - - - - - -PR1PRM  
 - - - - - - - - -MEMREL  
 - - - - - - - -PR1PRM  
 - - - - - - - - -MEMREL  
 - - - - - - - -PR1PRM  
 - - - - - - - - -MEMREL  
 - - - - - - - -PR1PRM  
 - - - - - - - - -MEMREL  
 - - - - - - - -PR1PRM  
 - - - - - - - - -MEMREL  
 - - - - - - - -PR1PRM  
 - - - - - - - - -MEMREL  
 - - - - - - - -PR1PRM  
 - - - - - - - - -MEMREL  
 - - - - - - - -PR1PRM  
 - - - - - - - - -MEMREL  
 - - - - - - - -PR1PRM  
 - - - - - - - - -MEMREL  
 - - - - - - - -PR1PRM  
 - - - - - - - - -MEMREL  
 - - - - - - - -PR1PRM  
 - - - - - - - - -MEMREL  
 - - - - - - - -PR1PRM  
 - - - - - - - - -MEMREL  
 - - - - - - - -PR1PRM  
 - - - - - - - - -MEMREL  
 - - - - - - - -PR1PRM  
 - - - - - - - - -MEMREL  
 - - - - - - - -PR1PRM  
 - - - - - - - - -MEMREL  
 - - - - - - - -PR1PRM  
 - - - - - - - - -MEMREL  
 - - - - - - - -PR1PRM  
 - - - - - - - - -MEMREL  
 - - - - - - - -PR1PRM  
 - - - - - - - - -MEMREL  
 - - - - - - - -PR1PRM  
 - - - - - - - - -MEMREL  
 - - - - - - - -PR1PRM  
 - - - - - - - - -MEMREL  
 - - - - - - - -PR1PRM  
 - - - - - - - - -MEMREL  
 - - - - - - - -PR1PRM  
 - - - - - - - - -MEMREL  
 - - - - - - - -PR1PRM  
 - - - - - - - - -MEMREL  
 - - - - - - - -PR1PRM  
 - - - - - - - - -MEMREL  
 - - - - - - - -PR1PRM  
 - - - - - - - - -MEMREL  
 - - - - - - - -PR1PRM  
 - - - - - - - - -MEMREL  
 - - - - - - - -PR1PRM  
 - - - - - - - - -MEMREL  
 - - - - - - - -PR1PRM  
 - - - - - - - - -MEMREL  
 - - - - - - - -PR1PRM  
 - - - - - - - - -MEMREL  
 - - - - - - - -PR1PRM  
 - - - - - - - - -MEMREL  
 - - - - - - - -PR1PRM  
 - - - - - - - - -MEMREL  
 - - - - - - - -PR1PRM  
 - - - - - - - - -MEMREL  
 - - - - - - - -PR1PRM  
 - - - - - - - - -MEMREL  
 - - - - - - - -PR1PRM  
 - - - - - - - - -MEMREL  
 - - - - - - - -PR1PRM  
 - - - - - - - - -MEMREL  
 - - - - - - - -PR1PRM  
 - - - - - - - - -MEMREL  
 - - - - - - - -PR1PRM  
 - - - - - - - - -MEMREL  
 - - - - - - - -PR1PRM  
 - - - - - - - - -MEMREL  
 - - - - - - - -PR1PRM  
 - - - - - - - - -MEMREL  
 - - - - - - - -PR1PRM  
 - - - - - - - - -MEMREL  
 - - - - - - - -PR1PRM  
 - - - - - - - - -MEMREL  
 - - - - - - - -PR1PRM  
 - - - - - - - - -MEMREL  
 - - - - - - - -PR1PRM  
 - - - - - - - - -MEMREL  
 - - - - - - - -PR1PRM  
 - - - - - - - - -MEMREL  
 - - - - - - - -PR1PRM  
 - - - - - - - - -MEMREL  
 - - - - - - - -PR1PRM  
 - - - - - - - - -MEMREL  
 - - - - - - - -PR1PRM  
 - - - - - - - - -MEMREL  
 - - - - - - - -PR1PRM  
 - - - - - - - - -MEMREL  
 - - - - - - - -PR1PRM  
 - - - - - - - - -MEMREL  
 - - - - - - - -PR1PRM  
 - - - - - - - - -MEMREL  
 - - - - - - - -PR1PRM  
 - - - - - - - - -MEMREL  
 - - - - - - - -PR1PRM  
 - - - - - - - - -MEMREL  
 - - - - - - - -PR1PRM  
 - - - - - - - - -MEMREL  
 - - - - - - - -PR1PRM  
 - - - - - - - - -MEMREL  
 - - - - - - - -PR1PRM  
 - - - - - - - - -MEMREL  
 - - - - - - - -PR1PRM  
 - - - - - - - - -MEMREL  
 - - - - - - - -PR1PRM  
 - - - - - - - - -MEMREL  
 - - - - - - - -PR1PRM  
 - - - - - - - - -MEMREL  
 - - - - - - - -PR1PRM  
 - - - - - - - - -MEMREL  
 - - - - - - - -PR1PRM  
 - - - - - - - - -MEMREL  
 - - - - - - - -PR1PRM  
 - - - - - - - - -MEMREL  
 - - - - - - - -PR1PRM  
 - - - - - - - - -MEMREL  
 - - - - - - - -PR1PRM  
 - - - - - - - - -MEMREL  
 - - - - - - - -PR1PRM  
 - - - - - - - - -MEMREL  
 - - - - - - - -PR1PRM  
 - - - - - - - - -MEMREL  
 - - - - - - - -PR1PRM  
 - - - - - - - - -MEMREL  
 - - - - - - - -PR1PRM  
 - - - - - - - - -MEMREL  
 - - - - - - - -PR1PRM  
 - - - - - - - - -MEMREL  
 - - - - - - - -PR1PRM  
 - - - - - - - - -MEMREL  
 - - - - - - - -PR1PRM  
 - - - - - - - - -MEMREL  
 - - - - - - - -PR1PRM  
 - - - - - - - - -MEMREL  
 - - - - - - - -PR1PRM  
 - - - - - - - - -MEMREL  
 - - - - - - - -PR1PRM  
 - - - - - - - - -MEMREL  
 - - - - - - - -PR1PRM  
 - - - - - - - - -MEMREL  
 - - - - - - - -PR1PRM  
 - - - - - - - - -MEMREL  
 - - - - - - - -PR1PRM  
 - - - - - - - - -MEMREL  
 - - - - - - - -PR1PRM  
 - - - - - - - - -MEMREL  
 - - - - - - - -PR1PRM  
 - - - - - - - - -MEMREL  
 - - - - - - - -PR1PRM  
 - - - - - - - - -MEMREL  
 - - - - - - - -PR1PRM  
 - - - - - - - - -MEMREL  
 - - - - - - - -PR1PRM  
 - - - - - - - - -MEMREL  
 - - - - - - - -PR1PRM  
 - - - - - - - - -MEMREL  
 - - - - - - - -PR1PRM  
 - - - - - - - - -MEMREL  
 - - - - - - - -PR1PRM  
 - - - - - - - - -MEMREL  
 - - - - - - - -PR1PRM  
 - - - - - - - - -MEMREL  
 - - - - - - - -PR1PRM  
 - - - - - - - - -MEMREL  
 - - - - - - - -PR1PRM  
 - - - - - - - - -MEMREL  
 - - - - - - - -PR1PRM  
 - - - - - - - - -MEMREL  
 - - - - - - - -PR1PRM  
 - - - - - - - - -MEMREL  
 - - - - - - - -PR1PRM  
 - - - - - - - - -MEMREL  
 - - - - - - - -PR1PRM  
 - - - - - - - - -MEMREL  
 - - - - - - - -PR1PRM  
 - - - - - - - - -MEMREL  
 - - - - - - - -PR1PRM  
 - - - - - - - - -MEMREL  
 - - - - - - - -PR1PRM  
 - - - - - - - - -MEMREL  
 - - - - - - - -PR1PRM  
 - - - - - - - - -MEMREL  
 - - - - - - - -PR1PRM  
 - - - - - - - - -MEMREL  
 - - - - - - - -PR1PRM  
 - - - - - - - - -MEMREL  
 - - - - - - - -PR1PRM  
 - - - - - - - - -MEMREL  
 - - - - - - - -PR1PRM  
 - - - - - - - - -MEMREL  
 - - - - - - - -PR1PRM  
 - - - - - - - - -MEMREL  
 - - - - - - - -PR1PRM  
 - - - - - - - - -MEMREL  
 - - - - - - - -PR1PRM  
 - - - - - - - - -MEMREL  
 - - - - - - - -PR1PRM  
 - - - - - - - - -MEMREL  
 - - - - - - - -PR1PRM  
 - - - - - - - - -MEMREL  
 - - - - - - - -PR1PRM  
 - - - - - - - - -MEMREL  
 - - - - - - - -PR1PRM  
 - - - - - - - - -MEMREL  
 - - - - - - - -PR1PRM  
 - - - - - - - - -MEMREL  
 - - - - - - - -PR1PRM  
 - - - - - - - - -MEMREL  
 - - - - - - - -PR1PRM  
 - - - - - - - - -MEMREL  
 - - - - - - - -PR1PRM  
 - - - - - - - - -MEMREL  
 - - - - - - - -PR1PRM  
 - - - - - - - - -MEMREL  
 - - - - - - - -PR1PRM  
 - - - - - - - - -MEMREL  
 - - - - - - - -PR1PRM  
 - - - - - - - - -MEMREL  
 - - - - - - - -PR1PRM  
 - - - - - - - - -MEMREL  
 - - - - - - - -PR1PRM  
 - - - - - - - - -MEMREL  
 - - - - - - - -PR1PRM  
 - - - - - - - - -MEMREL  
 - - - - - - - -PR1PRM  
 - - - - - - - - -MEMREL  
 - - - - - - - -PR1PRM  
 - - - - - - - - -MEMREL  
 - - - - - - - -PR1PRM  
 - - - - - - - - -MEMREL  
 - - - - - - - -PR1PRM  
 - - - - - - - - -MEMREL  
 - - - - - - - -PR1PRM  
 - - - - - - - - -MEMREL  
 - - - - - - - -PR1PRM  
 - - - - - - - - -MEMREL  
 - - - - - - - -PR1PRM  
 - - - - - - - - -MEMREL  
 - - - - - - - -PR1PRM  
 - - - - - - - - -MEMREL  
 - - - - - - - -PR1PRM  
 - - - - - - - - -MEMREL  
 - - - - - - - -PR1PRM  
 - - - - - - - - -MEMREL  
 - - - - - - - -PR1PRM  
 - - - - - - - - -MEMREL  
 - - - - - - - -PR1PRM  
 - - - - - - - - -MEMREL  
 - - - - - - - -PR1PRM  
 - - - - - - - - -MEMREL  
 - - - - - - - -PR1PRM  
 - - - - - - - - -MEMREL  
 - - - - - - - -PR1PRM  
 - - - - - - - - -MEMREL  
 - - - - - - - -PR1PRM  
 - - - - - - - - -MEMREL  
 - - - - - - - -PR1PRM  
 - - - - - - - - -MEMREL  
 - - - - - - - -PR1PRM  
 - - - - - - - - -MEMREL  
 - - - - - - - -PR1PRM  
 - - - - - - - - -MEMREL  
 - - - - - - - -PR1PRM  
 - - - - - - - - -MEMREL  
 - - - - - - - -PR1PRM  
 - - - - - - - - -MEMREL  
 - - - - - - - -PR1PRM  
 - - - - - - - - -MEMREL  
 - - - - - - - -PR1PRM  
 - - - - - - - - -MEMREL  
 - - - - - - - -PR1PRM  
 - - - - - - - - -MEMREL  
 - - - - - - - -PR1PRM  
 - - - - - - - - -MEMREL  
 - - - - - - - -PR1PRM  
 - - - - - - - - -MEMREL  
 - - - - - - - -PR1PRM  
 - - - - - - - - -MEMREL  
 - - - - - - - -PR1PRM  
 - - - - - - - - -MEMREL  
 - - - - - - - -PR1PRM  
 - - - - - - - - -MEMREL  
 - - - - - - - -PR1PRM  
 - - - - - - - - -MEMREL  
 - - - - - - - -PR1PRM  
 - - - - - - - - -MEMREL  
 - - - - - - - -MEMREL  
 - - - - - - -MEMREL  
 - - - - - -PR1INT  
 - - - - - - -PR1IN1  
 - - - - - - - -SETATM  
 - - - - - - - -PR1PRM  
 - - - - - - - - -MEMREL  
 - - - - - - - -PR1PRM  
 - - - - - - - - -MEMREL  
 - - - - - - - -PR1PRM  
 - - - - - - - - -MEMREL  
 - - - - - - - -PR1PRM  
 - - - - - - - - -MEMREL  
 - - - - - - - -PR1PRM  
 - - - - - - - - -MEMREL  
 - - - - - - - -PR1PRM  
 - - - - - - - - -MEMREL  
 - - - - - - - -PR1PRM  
 - - - - - - - - -MEMREL  
 - - - - - - - -PR1PRM  
 - - - - - - - - -MEMREL  
 - - - - - - - -PR1PRM  
 - - - - - - - - -MEMREL  
 - - - - - - - -PR1PRM  
 - - - - - - - - -MEMREL  
 - - - - - - - -PR1PRM  
 - - - - - - - - -MEMREL  
 - - - - - - - -PR1PRM  
 - - - - - - - - -MEMREL  
 - - - - - - - -PR1PRM  
 - - - - - - - - -MEMREL  
 - - - - - - - -PR1PRM  
 - - - - - - - - -MEMREL  
 - - - - - - - -PR1PRM  
 - - - - - - - - -MEMREL  
 - - - - - - - -PR1PRM  
 - - - - - - - - -MEMREL  
 - - - - - - - -PR1PRM  
 - - - - - - - - -MEMREL  
 - - - - - - - -PR1PRM  
 - - - - - - - - -MEMREL  
 - - - - - - - -PR1PRM  
 - - - - - - - - -MEMREL  
 - - - - - - - -PR1PRM  
 - - - - - - - - -MEMREL  
 - - - - - - - -PR1PRM  
 - - - - - - - - -MEMREL  
 - - - - - - - -PR1PRM  
 - - - - - - - - -MEMREL  
 - - - - - - - -PR1PRM  
 - - - - - - - - -MEMREL  
 - - - - - - - -PR1PRM  
 - - - - - - - - -MEMREL  
 - - - - - - - -PR1PRM  
 - - - - - - - - -MEMREL  
 - - - - - - - -PR1PRM  
 - - - - - - - - -MEMREL  
 - - - - - - - -PR1PRM  
 - - - - - - - - -MEMREL  
 - - - - - - - -PR1PRM  
 - - - - - - - - -MEMREL  
 - - - - - - - -PR1PRM  
 - - - - - - - - -MEMREL  
 - - - - - - - -PR1PRM  
 - - - - - - - - -MEMREL  
 - - - - - - - -PR1PRM  
 - - - - - - - - -MEMREL  
 - - - - - - - -PR1PRM  
 - - - - - - - - -MEMREL  
 - - - - - - - -PR1PRM  
 - - - - - - - - -MEMREL  
 - - - - - - - -PR1PRM  
 - - - - - - - - -MEMREL  
 - - - - - - - -PR1PRM  
 - - - - - - - - -MEMREL  
 - - - - - - - -PR1PRM  
 - - - - - - - - -MEMREL  
 - - - - - - - -PR1PRM  
 - - - - - - - - -MEMREL  
 - - - - - - - -PR1PRM  
 - - - - - - - - -MEMREL  
 - - - - - - - -PR1PRM  
 - - - - - - - - -MEMREL  
 - - - - - - - -PR1PRM  
 - - - - - - - - -MEMREL  
 - - - - - - - -PR1PRM  
 - - - - - - - - -MEMREL  
 - - - - - - - -PR1PRM  
 - - - - - - - - -MEMREL  
 - - - - - - - -PR1PRM  
 - - - - - - - - -MEMREL  
 - - - - - - - -PR1PRM  
 - - - - - - - - -MEMREL  
 - - - - - - - -PR1PRM  
 - - - - - - - - -MEMREL  
 - - - - - - - -PR1PRM  
 - - - - - - - - -MEMREL  
 - - - - - - - -PR1PRM  
 - - - - - - - - -MEMREL  
 - - - - - - - -PR1PRM  
 - - - - - - - - -MEMREL  
 - - - - - - - -PR1PRM  
 - - - - - - - - -MEMREL  
 - - - - - - - -PR1PRM  
 - - - - - - - - -MEMREL  
 - - - - - - - -PR1PRM  
 - - - - - - - - -MEMREL  
 - - - - - - - -PR1PRM  
 - - - - - - - - -MEMREL  
 - - - - - - - -PR1PRM  
 - - - - - - - - -MEMREL  
 - - - - - - - -PR1PRM  
 - - - - - - - - -MEMREL  
 - - - - - - - -PR1PRM  
 - - - - - - - - -MEMREL  
 - - - - - - - -PR1PRM  
 - - - - - - - - -MEMREL  
 - - - - - - - -PR1PRM  
 - - - - - - - - -MEMREL  
 - - - - - - - -PR1PRM  
 - - - - - - - - -MEMREL  
 - - - - - - - -PR1PRM  
 - - - - - - - - -MEMREL  
 - - - - - - - -PR1PRM  
 - - - - - - - - -MEMREL  
 - - - - - - - -PR1PRM  
 - - - - - - - - -MEMREL  
 - - - - - - - -PR1PRM  
 - - - - - - - - -MEMREL  
 - - - - - - - -PR1PRM  
 - - - - - - - - -MEMREL  
 - - - - - - - -PR1PRM  
 - - - - - - - - -MEMREL  
 - - - - - - - -PR1PRM  
 - - - - - - - - -MEMREL  
 - - - - - - - -PR1PRM  
 - - - - - - - - -MEMREL  
 - - - - - - - -PR1PRM  
 - - - - - - - - -MEMREL  
 - - - - - - - -PR1PRM  
 - - - - - - - - -MEMREL  
 - - - - - - - -PR1PRM  
 - - - - - - - - -MEMREL  
 - - - - - - - -PR1PRM  
 - - - - - - - - -MEMREL  
 - - - - - - - -PR1PRM  
 - - - - - - - - -MEMREL  
 - - - - - - - -PR1PRM  
 - - - - - - - - -MEMREL  
 - - - - - - - -PR1PRM  
 - - - - - - - - -MEMREL  
 - - - - - - - -PR1PRM  
 - - - - - - - - -MEMREL  
 - - - - - - - -PR1PRM  
 - - - - - - - - -MEMREL  
 - - - - - - - -PR1PRM  
 - - - - - - - - -MEMREL  
 - - - - - - - -PR1PRM  
 - - - - - - - - -MEMREL  
 - - - - - - - -PR1PRM  
 - - - - - - - - -MEMREL  
 - - - - - - - -PR1PRM  
 - - - - - - - - -MEMREL  
 - - - - - - - -PR1PRM  
 - - - - - - - - -MEMREL  
 - - - - - - - -PR1PRM  
 - - - - - - - - -MEMREL  
 - - - - - - - -PR1PRM  
 - - - - - - - - -MEMREL  
 - - - - - - - -PR1PRM  
 - - - - - - - - -MEMREL  
 - - - - - - - -PR1PRM  
 - - - - - - - - -MEMREL  
 - - - - - - - -PR1PRM  
 - - - - - - - - -MEMREL  
 - - - - - - - -PR1PRM  
 - - - - - - - - -MEMREL  
 - - - - - - - -PR1PRM  
 - - - - - - - - -MEMREL  
 - - - - - - - -PR1PRM  
 - - - - - - - - -MEMREL  
 - - - - - - - -PR1PRM  
 - - - - - - - - -MEMREL  
 - - - - - - - -PR1PRM  
 - - - - - - - - -MEMREL  
 - - - - - - - -PR1PRM  
 - - - - - - - - -MEMREL  
 - - - - - - - -PR1PRM  
 - - - - - - - - -MEMREL  
 - - - - - - - -PR1PRM  
 - - - - - - - - -MEMREL  
 - - - - - - - -PR1PRM  
 - - - - - - - - -MEMREL  
 - - - - - - - -PR1PRM  
[...]
 - - - - - - - - - -NXTH2D  
 - - - - - - - - - -NXTH2D  
 - - - - - - - - - -NXTH2D  
 - - - - - - - - - -NXTH2D  
 - - - - - - - - - -NXTH2D  
 - - - - - - - - - -NXTH2D  
 - - - - - - - - - -NXTH2D  
 - - - - - - - - - -NXTH2D  
 - - - - - - - - - -NXTH2D  
 - - - - - - - - - -NXTH2D  
 - - - - - - - - - -NXTH2D  
 - - - - - - - - - -NXTH2D  
 - - - - - - - - - - -MEMREL  
 - - - - - - - - - -MEMREL  
 - - - - - - - - - -RSPORB  
 - - - - - - - - - -MEMREL  
 - - - - - - - -GPOPEN  
 - - - - - - - -RSPRED  
 - - - - - - - - -RSPSLI  
 - - - - - - - - - -RSPZYM  
 - - - - - - - - - -RSPSOR  
 - - - - - - - -RSPNEX  
 - - - - - - - - -RSPORT  
 - - - - - - - -RSPELI  
 - - - - - - - - -RSPZYM  
 - - - - - - - - -RSPOLI  
 - - - - - - - - - -NXTH2M  
 - - - - - - - - - -NXTH2M  
 - - - - - - - - - -NXTH2M  
 - - - - - - - - - -NXTH2M  
 - - - - - - - - - -NXTH2M  
 - - - - - - - - - -NXTH2M  
 - - - - - - - - - -NXTH2M  
 - - - - - - - - - -NXTH2M  
 - - - - - - - - - -NXTH2M  
 - - - - - - - - - -NXTH2M  
 - - - - - - - - - -NXTH2M  
 - - - - - - - - - -NXTH2M  
 - - - - - - - - - -NXTH2M  
 - - - - - - - - - -NXTH2M  
 - - - - - - - - - -NXTH2M  
 - - - - - - - - - -NXTH2M  
 - - - - - - - - - - -MEMREL  
 - - - - - - - - - -MEMREL  
 - - - - - - - - - -GPOPEN  
 - - - - - - - - - -NXTH2D  
 - - - - - - - - - -NXTH2D  
 - - - - - - - - - -NXTH2D  
 - - - - - - - - - -NXTH2D  
 - - - - - - - - - -NXTH2D  
 - - - - - - - - - -NXTH2D  
 - - - - - - - - - -NXTH2D  
 - - - - - - - - - -NXTH2D  
 - - - - - - - - - -NXTH2D  
 - - - - - - - - - -NXTH2D  
 - - - - - - - - - -NXTH2D  
 - - - - - - - - - -NXTH2D  
 - - - - - - - - - -NXTH2D  
 - - - - - - - - - -NXTH2D  
 - - - - - - - - - -NXTH2D  
 - - - - - - - - - -NXTH2D  
 - - - - - - - - - - -MEMREL  
 - - - - - - - - - -MEMREL  
 - - - - - - - - - -RSPORB  
 - - - - - - - - - -MEMREL  
 - - - - - - - -GPOPEN  
 - - - - - - - -RSPRED  
 - - - - - - - - -RSPSLI  
 - - - - - - - - - -RSPZYM  
 - - - - - - - - - -RSPSOR  
 - - - - - - - -RSPNEX  
 - - - - - - - - -RSPORT  
 - - - - - - - -RSPELI  
 - - - - - - - - -RSPZYM  
 - - - - - - - - -RSPOLI  
 - - - - - - - - - -NXTH2M  
 - - - - - - - - - -NXTH2M  
 - - - - - - - - - -NXTH2M  
 - - - - - - - - - -NXTH2M  
 - - - - - - - - - -NXTH2M  
 - - - - - - - - - -NXTH2M  
 - - - - - - - - - -NXTH2M  
 - - - - - - - - - -NXTH2M  
 - - - - - - - - - -NXTH2M  
 - - - - - - - - - -NXTH2M  
 - - - - - - - - - -NXTH2M  
 - - - - - - - - - -NXTH2M  
 - - - - - - - - - -NXTH2M  
 - - - - - - - - - -NXTH2M  
 - - - - - - - - - -NXTH2M  
 - - - - - - - - - -NXTH2M  
 - - - - - - - - - - -MEMREL  
 - - - - - - - - - -MEMREL  
 - - - - - - - - - -GPOPEN  
 - - - - - - - - - -NXTH2D  
 - - - - - - - - - -NXTH2D  
 - - - - - - - - - -NXTH2D  
 - - - - - - - - - -NXTH2D  
 - - - - - - - - - -NXTH2D  
 - - - - - - - - - -NXTH2D  
 - - - - - - - - - -NXTH2D  
 - - - - - - - - - -NXTH2D  
 - - - - - - - - - -NXTH2D  
 - - - - - - - - - -NXTH2D  
 - - - - - - - - - -NXTH2D  
 - - - - - - - - - -NXTH2D  
 - - - - - - - - - -NXTH2D  
 - - - - - - - - - -NXTH2D  
 - - - - - - - - - -NXTH2D  
 - - - - - - - - - -NXTH2D  
 - - - - - - - - - - -MEMREL  
 - - - - - - - - - -MEMREL  
 - - - - - - - - - -RSPORB  
 - - - - - - - - - -MEMREL  
 - - - - - - - -GPOPEN  
 - - - - - - - -RSPRED  
 - - - - - - - - -RSPSLI  
 - - - - - - - - - -RSPZYM  
 - - - - - - - - - -RSPSOR  
 - - - - - - - -RSPNEX  
 - - - - - - - - -RSPORT  
 - - - - - - - -RSPELI  
 - - - - - - - - -RSPZYM  
 - - - - - - - - -RSPOLI  
 - - - - - - - - - -NXTH2M  
 - - - - - - - - - -NXTH2M  
 - - - - - - - - - -NXTH2M  
 - - - - - - - - - -NXTH2M  
 - - - - - - - - - -NXTH2M  
 - - - - - - - - - -NXTH2M  
 - - - - - - - - - -NXTH2M  
 - - - - - - - - - -NXTH2M  
 - - - - - - - - - -NXTH2M  
 - - - - - - - - - -NXTH2M  
 - - - - - - - - - -NXTH2M  
 - - - - - - - - - -NXTH2M  
 - - - - - - - - - -NXTH2M  
 - - - - - - - - - -NXTH2M  
 - - - - - - - - - -NXTH2M  
 - - - - - - - - - -NXTH2M  
 - - - - - - - - - - -MEMREL  
 - - - - - - - - - -MEMREL  
 - - - - - - - - - -GPOPEN  
 - - - - - - - - - -NXTH2D  
 - - - - - - - - - -NXTH2D  
 - - - - - - - - - -NXTH2D  
 - - - - - - - - - -NXTH2D  
 - - - - - - - - - -NXTH2D  
 - - - - - - - - - -NXTH2D  
 - - - - - - - - - -NXTH2D  
 - - - - - - - - - -NXTH2D  
 - - - - - - - - - -NXTH2D  
 - - - - - - - - - -NXTH2D  
 - - - - - - - - - -NXTH2D  
 - - - - - - - - - -NXTH2D  
 - - - - - - - - - -NXTH2D  
 - - - - - - - - - -NXTH2D  
 - - - - - - - - - -NXTH2D  
 - - - - - - - - - -NXTH2D  
 - - - - - - - - - - -MEMREL  
 - - - - - - - - - -MEMREL  
 - - - - - - - - - -RSPORB  
 - - - - - - - - - -MEMREL  
 - - - - - - - -GPOPEN  
 - - - - - - - -RSPRED  
 - - - - - - - - -RSPSLI  
 - - - - - - - - - -RSPZYM  
 - - - - - - - - - -RSPSOR  
 - - - - - - - -RSPNEX  
 - - - - - - - - -RSPORT  
 - - - - - - - -RSPELI  
 - - - - - - - - -RSPZYM  
 - - - - - - - - -RSPOLI  
 - - - - - - - - - -NXTH2M  
 - - - - - - - - - -NXTH2M  
 - - - - - - - - - -NXTH2M  
 - - - - - - - - - -NXTH2M  
 - - - - - - - - - -NXTH2M  
 - - - - - - - - - -NXTH2M  
 - - - - - - - - - -NXTH2M  
 - - - - - - - - - -NXTH2M  
 - - - - - - - - - -NXTH2M  
 - - - - - - - - - -NXTH2M  
 - - - - - - - - - -NXTH2M  
 - - - - - - - - - -NXTH2M  
 - - - - - - - - - -NXTH2M  
 - - - - - - - - - -NXTH2M  
 - - - - - - - - - -NXTH2M  
 - - - - - - - - - -NXTH2M  
 - - - - - - - - - - -MEMREL  
 - - - - - - - - - -MEMREL  
 - - - - - - - - - -GPOPEN  
 - - - - - - - - - -NXTH2D  
 - - - - - - - - - -NXTH2D  
 - - - - - - - - - -NXTH2D  
 - - - - - - - - - -NXTH2D  
 - - - - - - - - - -NXTH2D  
 - - - - - - - - - -NXTH2D  
 - - - - - - - - - -NXTH2D  
 - - - - - - - - - -NXTH2D  
 - - - - - - - - - -NXTH2D  
 - - - - - - - - - -NXTH2D  
 - - - - - - - - - -NXTH2D  
 - - - - - - - - - -NXTH2D  
 - - - - - - - - - -NXTH2D  
 - - - - - - - - - -NXTH2D  
 - - - - - - - - - -NXTH2D  
 - - - - - - - - - -NXTH2D  
 - - - - - - - - - - -MEMREL  
 - - - - - - - - - -MEMREL  
 - - - - - - - - - -RSPORB  
 - - - - - - - - - -MEMREL  
 - - - - - - - -GPOPEN  
 - - - - - - - -RSPRED  
 - - - - - - - - -RSPSLI  
 - - - - - - - - - -RSPZYM  
 - - - - - - - - - -RSPSOR  
 - - - - - - - -RSPNEX  

 *** THE REQUESTED    1 SOLUTION VECTORS CONVERGED

 Convergence of RSP solution vectors, threshold = 1.00D-03
 ---------------------------------------------------------------
 (dimension of paired reduced space:   12)
 RSP solution vector no.    1; norm of residual   2.90D-04

 *** RSPCTL MICROITERATIONS CONVERGED
 - - - - - - -WRTRSP  
    ZDIPLEN     YDIPLEN      freq1     freq2                Norm
 ---------------------------------------------------------------
                          0.000000  0.000000          4.95886886
 - - - - - -REARSP  
 - - - - - -GETGPV  
 - - - - - - -PRPCTL  
 - - - - - - - -PRPGET  
 - - - - - - - - -GPOPEN  
 - - - - - - - - -MEMREL  
 - - - - - - - -MEMREL  
 - - - - - -GETGPV  
 - - - - - - -PRPCTL  
 - - - - - - - -PRPGET  
 - - - - - - - - -GPOPEN  
 - - - - - - - - -MEMREL  
 - - - - - - - -MEMREL  
 - - - - - -GETGPV  
 - - - - - - -PRPCTL  
 - - - - - - - -PRPGET  
 - - - - - - - - -GPOPEN  
 - - - - - - - - -MEMREL  
 - - - - - - - -MEMREL  
@ B-freq = 0.000000  C-freq = 0.000000     beta(X;Z,Y) =     -2.12619113
@ B-freq = 0.000000  C-freq = 0.000000     beta(Y;Z,Y) =     -0.52968978
@ B-freq = 0.000000  C-freq = 0.000000     beta(Z;Z,Y) =     -0.07216665
 - - - - - -REARSP  
 - - - - - -REARSP  
@ B-freq = 0.000000  C-freq = 0.000000     beta(X;X,Z) = beta(Z,X,X)
@ B-freq = 0.000000  C-freq = 0.000000     beta(Y;X,Z) = beta(Z,Y,X)
@ B-freq = 0.000000  C-freq = 0.000000     beta(Z;X,Z) = beta(Z,Z,X)
 - - - - - -REARSP  
@ B-freq = 0.000000  C-freq = 0.000000     beta(X;Y,Z) = beta(Z,Y,X)
@ B-freq = 0.000000  C-freq = 0.000000     beta(Y;Y,Z) = beta(Z,Y,Y)
@ B-freq = 0.000000  C-freq = 0.000000     beta(Z;Y,Z) = beta(Z,Z,Y)
 - - - - - -REARSP  
@ B-freq = 0.000000  C-freq = 0.000000     beta(X;Z,Z) = beta(Z,Z,X)
@ B-freq = 0.000000  C-freq = 0.000000     beta(Y;Z,Z) = beta(Z,Z,Y)
 - - - - - -T3DRV   
 - - - - - - -E3INIT  
 - - - - - - - -Q3FOCK  
 - - - - - - - - -MOTOAO  
 - - - - - - - - - -MEMREL  
 - - - - - - - - -MOTOAO  
 - - - - - - - - - -MEMREL  
 - - - - - - - - -RDONEL  
 - - - - - - - - - -GPOPEN  
 - - - - - - - - -MEMREL  
 - - - - - - - - -MEMREL  
 - - - - - - - - -GTDMSO  
 - - - - - - - - -MATSYM  
 - - - - - - - - -MATSYM  
 - - - - - - - - -MATSYM  
 - - - - - - - - -SIRFCK  
 - - - - - - - - - -SIRFCK2 
 - - - - - - - - - - -GPOPEN  
 - - - - - - - - -MEMREL  
 - - - - - - - - -AOTOMO  
 - - - - - - - - - -MEMREL  
 - - - - - - - - -MEMREL  
 - - - - - -PRPGET  
 - - - - - - -GPOPEN  
 - - - - - - -MEMREL  
 - - - - - -PRPGET  
 - - - - - - -GPOPEN  
 - - - - - - -MEMREL  
 - - - - - -PRPGET  
 - - - - - - -GPOPEN  
 - - - - - - -MEMREL  
 - - - - - -PRPGET  
 - - - - - - -GPOPEN  
 - - - - - - -MEMREL  
 - - - - - -PRPGET  
 - - - - - - -GPOPEN  
 - - - - - - -MEMREL  
 - - - - - -PRPGET  
 - - - - - - -GPOPEN  
 - - - - - - -MEMREL  
 - - - - - -PRPGET  
 - - - - - - -GPOPEN  
 - - - - - - -MEMREL  
 - - - - - -PRPGET  
 - - - - - - -GPOPEN  
 - - - - - - -MEMREL  
 - - - - - -CRLRV3  


 CRLRV3 -- linear response calc for sym:  1
 CRLRV3 -- operator label1: ZDIPLEN 
 CRLRV3 -- operator label2: ZDIPLEN 
 CRLRV3 -- freqr1 :   0.000000D+00
 CRLRV3 -- freqr2 :   0.000000D+00
 - - - - - - -RSPCTL  



 <<<  SOLVING SETS OF LINEAR EQUATIONS FOR LINEAR RESPONSE PROPERTIES >>>

 Operator symmetry =  1; triplet =   F

 - - - - - - - -LRST    
 - - - - - - - - -REARSP  
 - - - - - - - - -RSPORT  
 - - - - - - - -RSPELI  
 - - - - - - - - -RSPZYM  
 - - - - - - - - -RSPOLI  
 - - - - - - - - - -NXTH2M  
 - - - - - - - - - -NXTH2M  
 - - - - - - - - - -NXTH2M  
 - - - - - - - - - -NXTH2M  
 - - - - - - - - - -NXTH2M  
 - - - - - - - - - -NXTH2M  
 - - - - - - - - - -NXTH2M  
 - - - - - - - - - -NXTH2M  
 - - - - - - - - - -NXTH2M  
 - - - - - - - - - -NXTH2M  
 - - - - - - - - - -NXTH2M  
 - - - - - - - - - -NXTH2M  
 - - - - - - - - - -NXTH2M  
 - - - - - - - - - -NXTH2M  
 - - - - - - - - - -NXTH2M  
 - - - - - - - - - -NXTH2M  
 - - - - - - - - - - -MEMREL  
 - - - - - - - - - -MEMREL  
 - - - - - - - - - -GPOPEN  
 - - - - - - - - - -NXTH2D  
 - - - - - - - - - -NXTH2D  
 - - - - - - - - - -NXTH2D  
 - - - - - - - - - -NXTH2D  
 - - - - - - - - - -NXTH2D  
 - - - - - - - - - -NXTH2D  
 - - - - - - - - - -NXTH2D  
 - - - - - - - - - -NXTH2D  
 - - - - - - - - - -NXTH2D  
 - - - - - - - - - -NXTH2D  
 - - - - - - - - - -NXTH2D  
 - - - - - - - - - -NXTH2D  
 - - - - - - - - - -NXTH2D  
 - - - - - - - - - -NXTH2D  
 - - - - - - - - - -NXTH2D  
 - - - - - - - - - -NXTH2D  
 - - - - - - - - - - -MEMREL  
 - - - - - - - - - -MEMREL  
 - - - - - - - - - -RSPORB  
 - - - - - - - - - -MEMREL  
 - - - - - - - -GPOPEN  
 - - - - - - - -RSPRED  
 - - - - - - - - -RSPSLI  
 - - - - - - - - - -RSPZYM  
 - - - - - - - - - -RSPSOR  
 - - - - - - - -RSPNEX  
 - - - - - - - - -RSPORT  
 - - - - - - - -RSPELI  
 - - - - - - - - -RSPZYM  
 - - - - - - - - -RSPOLI  
 - - - - - - - - - -NXTH2M  
 - - - - - - - - - -NXTH2M  
 - - - - - - - - - -NXTH2M  
 - - - - - - - - - -NXTH2M  
 - - - - - - - - - -NXTH2M  
 - - - - - - - - - -NXTH2M  
 - - - - - - - - - -NXTH2M  
 - - - - - - - - - -NXTH2M  
 - - - - - - - - - -NXTH2M  
 - - - - - - - - - -NXTH2M  
 - - - - - - - - - -NXTH2M  
 - - - - - - - - - -NXTH2M  
 - - - - - - - - - -NXTH2M  
 - - - - - - - - - -NXTH2M  
 - - - - - - - - - -NXTH2M  
 - - - - - - - - - -NXTH2M  
 - - - - - - - - - - -MEMREL  
 - - - - - - - - - -MEMREL  
 - - - - - - - - - -GPOPEN  
 - - - - - - - - - -NXTH2D  
 - - - - - - - - - -NXTH2D  
 - - - - - - - - - -NXTH2D  
 - - - - - - - - - -NXTH2D  
 - - - - - - - - - -NXTH2D  
 - - - - - - - - - -NXTH2D  
 - - - - - - - - - -NXTH2D  
 - - - - - - - - - -NXTH2D  
 - - - - - - - - - -NXTH2D  
 - - - - - - - - - -NXTH2D  
 - - - - - - - - - -NXTH2D  
 - - - - - - - - - -NXTH2D  
 - - - - - - - - - -NXTH2D  
 - - - - - - - - - -NXTH2D  
 - - - - - - - - - -NXTH2D  
 - - - - - - - - - -NXTH2D  
 - - - - - - - - - - -MEMREL  
 - - - - - - - - - -MEMREL  
 - - - - - - - - - -RSPORB  
 - - - - - - - - - -MEMREL  
 - - - - - - - -GPOPEN  
 - - - - - - - -RSPRED  
 - - - - - - - - -RSPSLI  
 - - - - - - - - - -RSPZYM  
 - - - - - - - - - -RSPSOR  
 - - - - - - - -RSPNEX  
 - - - - - - - - -RSPORT  
 - - - - - - - -RSPELI  
 - - - - - - - - -RSPZYM  
 - - - - - - - - -RSPOLI  
 - - - - - - - - - -NXTH2M  
 - - - - - - - - - -NXTH2M  
 - - - - - - - - - -NXTH2M  
 - - - - - - - - - -NXTH2M  
 - - - - - - - - - -NXTH2M  
 - - - - - - - - - -NXTH2M  
 - - - - - - - - - -NXTH2M  
 - - - - - - - - - -NXTH2M  
 - - - - - - - - - -NXTH2M  
 - - - - - - - - - -NXTH2M  
 - - - - - - - - - -NXTH2M  
 - - - - - - - - - -NXTH2M  
 - - - - - - - - - -NXTH2M  
 - - - - - - - - - -NXTH2M  
 - - - - - - - - - -NXTH2M  
 - - - - - - - - - -NXTH2M  
 - - - - - - - - - - -MEMREL  
 - - - - - - - - - -MEMREL  
 - - - - - - - - - -GPOPEN  
 - - - - - - - - - -NXTH2D  
 - - - - - - - - - -NXTH2D  
 - - - - - - - - - -NXTH2D  
 - - - - - - - - - -NXTH2D  
 - - - - - - - - - -NXTH2D  
 - - - - - - - - - -NXTH2D  
 - - - - - - - - - -NXTH2D  
 - - - - - - - - - -NXTH2D  
 - - - - - - - - - -NXTH2D  
 - - - - - - - - - -NXTH2D  
 - - - - - - - - - -NXTH2D  
 - - - - - - - - - -NXTH2D  
 - - - - - - - - - -NXTH2D  
 - - - - - - - - - -NXTH2D  
 - - - - - - - - - -NXTH2D  
 - - - - - - - - - -NXTH2D  
 - - - - - - - - - - -MEMREL  
 - - - - - - - - - -MEMREL  
 - - - - - - - - - -RSPORB  
 - - - - - - - - - -MEMREL  
 - - - - - - - -GPOPEN  
 - - - - - - - -RSPRED  
 - - - - - - - - -RSPSLI  
 - - - - - - - - - -RSPZYM  
 - - - - - - - - - -RSPSOR  
 - - - - - - - -RSPNEX  
 - - - - - - - - -RSPORT  
 - - - - - - - -RSPELI  
 - - - - - - - - -RSPZYM  
 - - - - - - - - -RSPOLI  
 - - - - - - - - - -NXTH2M  
 - - - - - - - - - -NXTH2M  
 - - - - - - - - - -NXTH2M  
 - - - - - - - - - -NXTH2M  
 - - - - - - - - - -NXTH2M  
 - - - - - - - - - -NXTH2M  
 - - - - - - - - - -NXTH2M  
 - - - - - - - - - -NXTH2M  
 - - - - - - - - - -NXTH2M  
 - - - - - - - - - -NXTH2M  
 - - - - - - - - - -NXTH2M  
 - - - - - - - - - -NXTH2M  
 - - - - - - - - - -NXTH2M  
 - - - - - - - - - -NXTH2M  
 - - - - - - - - - -NXTH2M  
 - - - - - - - - - -NXTH2M  
 - - - - - - - - - - -MEMREL  
 - - - - - - - - - -MEMREL  
 - - - - - - - - - -GPOPEN  
 - - - - - - - - - -NXTH2D  
 - - - - - - - - - -NXTH2D  
 - - - - - - - - - -NXTH2D  
 - - - - - - - - - -NXTH2D  
 - - - - - - - - - -NXTH2D  
 - - - - - - - - - -NXTH2D  
 - - - - - - - - - -NXTH2D  
 - - - - - - - - - -NXTH2D  
 - - - - - - - - - -NXTH2D  
 - - - - - - - - - -NXTH2D  
 - - - - - - - - - -NXTH2D  
 - - - - - - - - - -NXTH2D  
 - - - - - - - - - -NXTH2D  
 - - - - - - - - - -NXTH2D  
 - - - - - - - - - -NXTH2D  
 - - - - - - - - - -NXTH2D  
 - - - - - - - - - - -MEMREL  
 - - - - - - - - - -MEMREL  
 - - - - - - - - - -RSPORB  
 - - - - - - - - - -MEMREL  
 - - - - - - - -GPOPEN  
 - - - - - - - -RSPRED  
 - - - - - - - - -RSPSLI  
 - - - - - - - - - -RSPZYM  
 - - - - - - - - - -RSPSOR  
 - - - - - - - -RSPNEX  
 - - - - - - - - -RSPORT  
 - - - - - - - -RSPELI  
 - - - - - - - - -RSPZYM  
 - - - - - - - - -RSPOLI  
 - - - - - - - - - -NXTH2M  
 - - - - - - - - - -NXTH2M  
 - - - - - - - - - -NXTH2M  
 - - - - - - - - - -NXTH2M  
 - - - - - - - - - -NXTH2M  
 - - - - - - - - - -NXTH2M  
 - - - - - - - - - -NXTH2M  
 - - - - - - - - - -NXTH2M  
 - - - - - - - - - -NXTH2M  
 - - - - - - - - - -NXTH2M  
 - - - - - - - - - -NXTH2M  
 - - - - - - - - - -NXTH2M  
 - - - - - - - - - -NXTH2M  
 - - - - - - - - - -NXTH2M  
 - - - - - - - - - -NXTH2M  
 - - - - - - - - - -NXTH2M  
 - - - - - - - - - - -MEMREL  
 - - - - - - - - - -MEMREL  
 - - - - - - - - - -GPOPEN  
 - - - - - - - - - -NXTH2D  
 - - - - - - - - - -NXTH2D  
 - - - - - - - - - -NXTH2D  
 - - - - - - - - - -NXTH2D  
 - - - - - - - - - -NXTH2D  
 - - - - - - - - - -NXTH2D  
 - - - - - - - - - -NXTH2D  
 - - - - - - - - - -NXTH2D  
 - - - - - - - - - -NXTH2D  
 - - - - - - - - - -NXTH2D  
 - - - - - - - - - -NXTH2D  
 - - - - - - - - - -NXTH2D  
 - - - - - - - - - -NXTH2D  
 - - - - - - - - - -NXTH2D  
 - - - - - - - - - -NXTH2D  
 - - - - - - - - - -NXTH2D  
 - - - - - - - - - - -MEMREL  
 - - - - - - - - - -MEMREL  
 - - - - - - - - - -RSPORB  
 - - - - - - - - - -MEMREL  
 - - - - - - - -GPOPEN  
 - - - - - - - -RSPRED  
 - - - - - - - - -RSPSLI  
 - - - - - - - - - -RSPZYM  
 - - - - - - - - - -RSPSOR  
 - - - - - - - -RSPNEX  
 - - - - - - - - -RSPORT  
 - - - - - - - -RSPELI  
 - - - - - - - - -RSPZYM  
 - - - - - - - - -RSPOLI  
 - - - - - - - - - -NXTH2M  
 - - - - - - - - - -NXTH2M  
 - - - - - - - - - -NXTH2M  
 - - - - - - - - - -NXTH2M  
 - - - - - - - - - -NXTH2M  
 - - - - - - - - - -NXTH2M  
 - - - - - - - - - -NXTH2M  
 - - - - - - - - - -NXTH2M  
 - - - - - - - - - -NXTH2M  
 - - - - - - - - - -NXTH2M  
 - - - - - - - - - -NXTH2M  
 - - - - - - - - - -NXTH2M  
 - - - - - - - - - -NXTH2M  
 - - - - - - - - - -NXTH2M  
 - - - - - - - - - -NXTH2M  
 - - - - - - - - - -NXTH2M  
 - - - - - - - - - - -MEMREL  
 - - - - - - - - - -MEMREL  
 - - - - - - - - - -GPOPEN  
 - - - - - - - - - -NXTH2D  
 - - - - - - - - - -NXTH2D  
 - - - - - - - - - -NXTH2D  
 - - - - - - - - - -NXTH2D  
 - - - - - - - - - -NXTH2D  
 - - - - - - - - - -NXTH2D  
 - - - - - - - - - -NXTH2D  
 - - - - - - - - - -NXTH2D  
 - - - - - - - - - -NXTH2D  
 - - - - - - - - - -NXTH2D  
 - - - - - - - - - -NXTH2D  
 - - - - - - - - - -NXTH2D  
 - - - - - - - - - -NXTH2D  
 - - - - - - - - - -NXTH2D  
 - - - - - - - - - -NXTH2D  
 - - - - - - - - - -NXTH2D  
 - - - - - - - - - - -MEMREL  
 - - - - - - - - - -MEMREL  
 - - - - - - - - - -RSPORB  
 - - - - - - - - - -MEMREL  
 - - - - - - - -GPOPEN  
 - - - - - - - -RSPRED  
 - - - - - - - - -RSPSLI  
 - - - - - - - - - -RSPZYM  
 - - - - - - - - - -RSPSOR  
 - - - - - - - -RSPNEX  

 *** THE REQUESTED    1 SOLUTION VECTORS CONVERGED

 Convergence of RSP solution vectors, threshold = 1.00D-03
 ---------------------------------------------------------------
 (dimension of paired reduced space:   12)
 RSP solution vector no.    1; norm of residual   5.78D-04

 *** RSPCTL MICROITERATIONS CONVERGED
 - - - - - - -WRTRSP  
    ZDIPLEN     ZDIPLEN      freq1     freq2                Norm
 ---------------------------------------------------------------
                          0.000000  0.000000          7.75062484
 - - - - - -REARSP  
 - - - - - -GETGPV  
 - - - - - - -PRPCTL  
 - - - - - - - -PRPGET  
 - - - - - - - - -GPOPEN  
 - - - - - - - - -MEMREL  
 - - - - - - - -MEMREL  
 - - - - - -GETGPV  
 - - - - - - -PRPCTL  
 - - - - - - - -PRPGET  
 - - - - - - - - -GPOPEN  
 - - - - - - - - -MEMREL  
 - - - - - - - -MEMREL  
 - - - - - -GETGPV  
 - - - - - - -PRPCTL  
 - - - - - - - -PRPGET  
 - - - - - - - - -GPOPEN  
 - - - - - - - - -MEMREL  
 - - - - - - - -MEMREL  
@ B-freq = 0.000000  C-freq = 0.000000     beta(X;Z,Z) =      5.58621493
@ B-freq = 0.000000  C-freq = 0.000000     beta(Y;Z,Z) =     -0.07429350
@ B-freq = 0.000000  C-freq = 0.000000     beta(Z;Z,Z) =      9.06187934

 >>>> Total CPU  time used in RESPONSE:  21.06 seconds
 >>>> Total wall time used in RESPONSE:  4 minutes  0 seconds
 - - - -MEMREL  


                   .-------------------------------------------.
                   | End of Dynamic Property Section (RESPONS) |
                   `-------------------------------------------'

 - - -GPOPEN  
 - - -GEOANA  
 - - - -MEMREL  
 - - -GEOANA  
 - - - -MEMREL  
 - - -GPOPEN  
 - - -GEOANA  
 - - - -MEMREL  
 - - -GEOANA  
 - - - -MEMREL  
 >>>> Total CPU  time used in DALTON:  28.56 seconds
 >>>> Total wall time used in DALTON:  4 minutes 10 seconds

 
     Date and time (Linux)  : Tue Mar  4 23:29:45 2014
     Host name              : ubuntu                                  
